 Gaussian 03, Revision C.01,
 Gaussian 03:  IA32L-G03RevC.01  3-Apr-2004

 -----------------------------------------------------------
 #p gfinput iop(6/7=3) pop=full nosym density #HF/6-31G* #SP
 -----------------------------------------------------------

 --------
 BH3CO sp
 --------
 Symbolic Z-matrix:
 Charge =  0 Multiplicity = 1

                          Input orientation:
 ---------------------------------------------------------------------
 Center     Atomic     Atomic              Coordinates (Angstroms)
 Number     Number      Type              X           Y           Z
 ---------------------------------------------------------------------
    1          5             0        0.064567   -0.027896    0.013639
    2          1             0        0.031167   -0.023173    1.216042
    3          1             0        1.163475    0.052509   -0.468179
    4          1             0       -0.667785   -0.824243   -0.512249
 ---------------------------------------------------------------------

 SCF Done:  E(RHF) =  -26.3723828175     A.U. after    4 cycles

 Alpha  occ. eigenvalues --   -7.61630  -0.70186  -0.48652  -0.48608
 Alpha virt. eigenvalues --    0.07187   0.30915   0.30950   0.32769   0.56964
 Alpha virt. eigenvalues --    0.56980   0.64771   0.66727   1.15124   1.15206
 Alpha virt. eigenvalues --    1.19122   1.49234   1.49247   1.77279   2.08048

 Mulliken atomic charges:
              1
     1  B    0.104577
     2  H   -0.034915
     3  H   -0.034726
     4  H   -0.034936
 Sum of Mulliken charges=   0.00000

 Dipole moment (field-independent basis, Debye):
    X=    -0.2979    Y=     0.6348    Z=    -0.1736  Tot=     0.7224
 Quadrupole moment (field-independent basis, Debye-Ang):
   XX=    -9.0945   YY=    -7.5847   ZZ=    -9.3518
   XY=    -0.8672   XZ=     0.2329   YZ=    -0.5165

 Normal termination of Gaussian 03 at Thu Jan 26 17:17:22 2006.
