 Gaussian 03, Revision C.01,
 Gaussian 03:  IA32L-G03RevC.01  3-Apr-2004

 ----------------------------------------------------------------------
 #p gfinput iop(6/7=3) iop(3/33=1) iop(3/36=-1) #HF/6-31G* pop=full den
 sity nosym #SP
 ----------------------------------------------------------------------

 --------
 BH3CO sp
 --------
 Symbolic Z-matrix:
 Charge =  0 Multiplicity = 1

                          Input orientation:
 ---------------------------------------------------------------------
 Center     Atomic     Atomic              Coordinates (Angstroms)
 Number     Number      Type              X           Y           Z
 ---------------------------------------------------------------------
    1          5             0        0.064567   -0.027896    0.013639
    2          1             0        0.031167   -0.023173    1.216042
    3          1             0        1.163475    0.052509   -0.468179
    4          1             0       -0.667785   -0.824243   -0.512249
    5          6             0       -0.611870    1.401829   -0.375526
    6          8             0       -1.072579    2.374082   -0.640747
 ---------------------------------------------------------------------

 SCF Done:  E(RHF) =  -139.142410953     A.U. after    6 cycles

 Alpha  occ. eigenvalues --  -20.73284 -11.44012  -7.55950  -1.59082  -0.88263
 Alpha  occ. eigenvalues --   -0.79509  -0.70208  -0.70207  -0.55502  -0.46757
 Alpha  occ. eigenvalues --   -0.46719
 Alpha virt. eigenvalues --    0.11613   0.11615   0.27722   0.30175   0.34596
 Alpha virt. eigenvalues --    0.34643   0.39349   0.60155   0.60162   0.72699
 Alpha virt. eigenvalues --    0.72707   0.73220   0.87060   0.96122   1.09400

 Mulliken atomic charges:
              1
     1  B   -0.092560
     2  H   -0.045835
     3  H   -0.045658
     4  H   -0.045793
     5  C    0.507755
     6  O   -0.277910
 Sum of Mulliken charges=   0.00000

 Normal termination of Gaussian 03 at Thu Jan 26 17:17:40 2006.
