 Gaussian 03, Revision C.01,
 Gaussian 03:  IA32L-G03RevC.01  3-Apr-2004

 -----------------------------------------------------------
 #p gfinput iop(6/7=3) #HF/6-31G* pop=full density nosym #SP
 -----------------------------------------------------------

 -----
 CO sp
 -----
 Symbolic Z-matrix:
 Charge =  0 Multiplicity = 1

                          Input orientation:
 ---------------------------------------------------------------------
 Center     Atomic     Atomic              Coordinates (Angstroms)
 Number     Number      Type              X           Y           Z
 ---------------------------------------------------------------------
    1          6             0       -0.611870    1.401829   -0.375526
    2          8             0       -1.072579    2.374082   -0.640747
 ---------------------------------------------------------------------

 SCF Done:  E(RHF) =  -112.737784595     A.U. after    5 cycles

 Alpha  occ. eigenvalues --  -20.67505 -11.35282  -1.53343  -0.79832  -0.64184
 Alpha  occ. eigenvalues --   -0.64184  -0.54516
 Alpha virt. eigenvalues --    0.17045   0.17045   0.40970   0.73343   0.73343
 Alpha virt. eigenvalues --    0.76008   0.99714   1.12937   1.20654   1.20654
 Alpha virt. eigenvalues --    1.61738   1.74272   1.74272   1.86240   1.86240

 Mulliken atomic charges:
              1
     1  C    0.261900
     2  O   -0.261900
 Sum of Mulliken charges=   0.00000

 Dipole moment (field-independent basis, Debye):
    X=     0.0985    Y=    -0.2079    Z=     0.0567  Tot=     0.2370
 Quadrupole moment (field-independent basis, Debye-Ang):
   XX=   -10.4253   YY=   -12.3800   ZZ=   -10.0584
   XY=     1.1772   XZ=    -0.3205   YZ=     0.6826

 Normal termination of Gaussian 03 at Thu Jan 26 17:17:48 2006.
