                               Psi4 1.2.1 release

  ==> Input File <==

--------------------------------------------------------------------------
molecule dvb {
    0 1
    C    -1.4152533224   0.2302217854   0.0000000000
    C     1.4152533224  -0.2302217854   0.0000000000
    C    -0.4951331558   1.3144608674   0.0000000000
    C     0.4951331558  -1.3144608674   0.0000000000
    C     0.8894090436   1.0909493743   0.0000000000
    C    -0.8894090436  -1.0909493743   0.0000000000
    H    -0.8795511985   2.3437343748   0.0000000000
    H     0.8795511985  -2.3437343748   0.0000000000
    H     1.5779041557   1.9450061275   0.0000000000
    H    -1.5779041557  -1.9450061275   0.0000000000
    C     2.8845844962  -0.5210893778   0.0000000000
    C    -2.8845844962   0.5210893778   0.0000000000
    H     3.1403356810  -1.5919605685   0.0000000000
    H    -3.1403356810   1.5919605685   0.0000000000
    C     3.8800428103   0.3822535424   0.0000000000
    C    -3.8800428103  -0.3822535424   0.0000000000
    H     3.6946765858   1.4624389570   0.0000000000
    H    -3.6946765858  -1.4624389570   0.0000000000
    H     4.9316453546   0.0711049543   0.0000000000
    H    -4.9316453546  -0.0711049543   0.0000000000
}

set {
    basis sto-3g
}

frequencies('scf', dertype='gradient')
--------------------------------------------------------------------------

    Molecular point group: c2h
  Charge       = 0
  Multiplicity = 1
  Basis Set: STO-3G
    Blend: STO-3G
  Basis Set: (STO-3G AUX)
    Blend: DEF2-SVP-JKFIT
  @DF-RHF Final Energy:  -379.77011151471243
    Total Energy =                       -379.7701115147124256
    Molecular point group: c2h
  Basis Set: STO-3G
    Blend: STO-3G
  Basis Set: (STO-3G AUX)
    Blend: DEF2-SVP-JKFIT
  Basis Set: STO-3G
    Blend: STO-3G
  Basis Set: (STO-3G AUX)
    Blend: DEF2-SVP-JKFIT
  @DF-RHF Final Energy:  -379.77006016915448
    Total Energy =                       -379.7700601691544762
  Basis Set: STO-3G
    Blend: STO-3G
  Basis Set: (STO-3G AUX)
    Blend: DEF2-SVP-JKFIT
  Basis Set: STO-3G
    Blend: STO-3G
  @DF-RHF Final Energy:  -379.77016115422180
    Total Energy =                       -379.7701611542217961
  @DF-RHF Final Energy:  -379.77011854023044
    Total Energy =                       -379.7701185402304418
  @DF-RHF Final Energy:  -379.77010260384884
    Total Energy =                       -379.7701026038488408
  @DF-RHF Final Energy:  -379.77010451401043
    Total Energy =                       -379.7701045140104270
  @DF-RHF Final Energy:  -379.77011656812186
    Total Energy =                       -379.7701165681219209
  @DF-RHF Final Energy:  -379.77013970023029
    Total Energy =                       -379.7701397002302883
  @DF-RHF Final Energy:  -379.77008139392308
    Total Energy =                       -379.7700813939230784
  @DF-RHF Final Energy:  -379.77012192887440
    Total Energy =                       -379.7701219288743459
  @DF-RHF Final Energy:  -379.77009912001449
    Total Energy =                       -379.7700991200144927
  @DF-RHF Final Energy:  -379.77013828889613
    Total Energy =                       -379.7701382888960779
  @DF-RHF Final Energy:  -379.77008284326394
    Total Energy =                       -379.7700828432639355
  @DF-RHF Final Energy:  -379.77007455702972
    Total Energy =                       -379.7700745570297158
  @DF-RHF Final Energy:  -379.77014532797159
    Total Energy =                       -379.7701453279715906
  @DF-RHF Final Energy:  -379.77019854837584
    Total Energy =                       -379.7701985483757881
  @DF-RHF Final Energy:  -379.77001443161026
    Total Energy =                       -379.7700144316102069
  @DF-RHF Final Energy:  -379.77017804603958
    Total Energy =                       -379.7701780460396321
  @DF-RHF Final Energy:  -379.77003925359679
    Total Energy =                       -379.7700392535967922
  @DF-RHF Final Energy:  -379.77017690890398
    Total Energy =                       -379.7701769089039772
  @DF-RHF Final Energy:  -379.77011109687226
    Total Energy =                       -379.7701110968722560
  @DF-RHF Final Energy:  -379.77011045153563
    Total Energy =                       -379.7701104515356292
  @DF-RHF Final Energy:  -379.77011076347793
    Total Energy =                       -379.7701107634778737
  @DF-RHF Final Energy:  -379.77011074389890
    Total Energy =                       -379.7701107438988402
  @DF-RHF Final Energy:  -379.77011041408463
    Total Energy =                       -379.7701104140846837
  @DF-RHF Final Energy:  -379.77011071099497
    Total Energy =                       -379.7701107109950271
  @DF-RHF Final Energy:  -379.77011064201037
    Total Energy =                       -379.7701106420104225
  @DF-RHF Final Energy:  -379.77010998874562
    Total Energy =                       -379.7701099887456166
  @DF-RHF Final Energy:  -379.77010666691081
    Total Energy =                       -379.7701066669108059
  @DF-RHF Final Energy:  -379.77010874343284
    Total Energy =                       -379.7701087434328429
  @DF-RHF Final Energy:  -379.77010785741697
    Total Energy =                       -379.7701078574169742
  @DF-RHF Final Energy:  -379.77011026909452
    Total Energy =                       -379.7701102690945163
  @DF-RHF Final Energy:  -379.77010988003531
    Total Energy =                       -379.7701098800353066
  @DF-RHF Final Energy:  -379.77011028912159
    Total Energy =                       -379.7701102891215896
  @DF-RHF Final Energy:  -379.77010653232571
    Total Energy =                       -379.7701065323257126
  @DF-RHF Final Energy:  -379.77010769974316
    Total Energy =                       -379.7701076997432210
  @DF-RHF Final Energy:  -379.77010745736970
    Total Energy =                       -379.7701074573697042
  @DF-RHF Final Energy:  -379.77010836349501
    Total Energy =                       -379.7701083634950692
  Basis Set: (STO-3G AUX)
    Blend: DEF2-SVP-JKFIT
  Basis Set: STO-3G
    Blend: STO-3G
  Basis Set: (STO-3G AUX)
    Blend: DEF2-SVP-JKFIT
  @DF-RHF Final Energy:  -379.77010808087505
    Total Energy =                       -379.7701080808750476
  Basis Set: STO-3G
    Blend: STO-3G
  Basis Set: (STO-3G AUX)
    Blend: DEF2-SVP-JKFIT
    Molecular point group: c2h
  Charge       = 0
  Multiplicity = 1
  Basis Set: STO-3G
    Blend: STO-3G
  Basis Set: (STO-3G AUX)
    Blend: DEF2-SVP-JKFIT

    Orbital Energies [Eh]
    ---------------------

    Doubly Occupied:

       1Bu   -11.040746     1Ag   -11.040684     2Bu   -11.031748
       2Ag   -11.031747     3Bu   -11.029111     3Ag   -11.028980
       4Bu   -11.028767     4Ag   -11.028743     5Bu   -11.017634
       5Ag   -11.017633     6Ag    -1.090317     6Bu    -1.020272
       7Ag    -0.974940     7Bu    -0.950318     8Bu    -0.909650
       8Ag    -0.799895     9Ag    -0.762837     9Bu    -0.727642
      10Ag    -0.696780    11Ag    -0.628047    10Bu    -0.605675
      11Bu    -0.572947    12Bu    -0.553601    12Ag    -0.553162
      13Bu    -0.525353    14Bu    -0.496696    13Ag    -0.492528
       1Au    -0.463721    15Bu    -0.446434    14Ag    -0.421659
      15Ag    -0.415628     1Bg    -0.376953     2Au    -0.315119
       2Bg    -0.278351     3Bg    -0.222179

  @DF-RHF Final Energy:  -379.77011151233091

   => Energetics <=

    Nuclear Repulsion Energy =            445.9369781142434590
    One-Electron Energy =               -1400.2211834127942893
    Two-Electron Energy =                 574.5140937862199735
    Total Energy =                       -379.7701115123309137

  Dipole Moment: [D]
     X:     0.0000      Y:    -0.0000      Z:     0.0000     Total:     0.0000

    Molecular point group: c2h

    Geometry (in Angstrom), charge = 0, multiplicity = 1:

       Center              X                  Y                   Z               Mass
    ------------   -----------------  -----------------  -----------------  -----------------
         C           -1.415253322400     0.230221785400     0.000000000000    12.000000000000
         C            1.415253322400    -0.230221785400     0.000000000000    12.000000000000
         C           -0.495133155800     1.314460867400     0.000000000000    12.000000000000
         C            0.495133155800    -1.314460867400     0.000000000000    12.000000000000
         C            0.889409043600     1.090949374300     0.000000000000    12.000000000000
         C           -0.889409043600    -1.090949374300     0.000000000000    12.000000000000
         H           -0.879551198500     2.343734374800     0.000000000000     1.007825032070
         H            0.879551198500    -2.343734374800     0.000000000000     1.007825032070
         H            1.577904155700     1.945006127500     0.000000000000     1.007825032070
         H           -1.577904155700    -1.945006127500     0.000000000000     1.007825032070
         C            2.884584496200    -0.521089377800     0.000000000000    12.000000000000
         C           -2.884584496200     0.521089377800     0.000000000000    12.000000000000
         H            3.140335681000    -1.591960568500     0.000000000000     1.007825032070
         H           -3.140335681000     1.591960568500     0.000000000000     1.007825032070
         C            3.880042810300     0.382253542400     0.000000000000    12.000000000000
         C           -3.880042810300    -0.382253542400     0.000000000000    12.000000000000
         H            3.694676585800     1.462438957000     0.000000000000     1.007825032070
         H           -3.694676585800    -1.462438957000     0.000000000000     1.007825032070
         H            4.931645354600     0.071104954300     0.000000000000     1.007825032070
         H           -4.931645354600    -0.071104954300     0.000000000000     1.007825032070

  Basis Set: STO-3G
    Blend: STO-3G
  Basis Set: (STO-3G AUX)
    Blend: DEF2-SVP-JKFIT

  -Total Gradient:
     Atom            X                  Y                   Z
    ------   -----------------  -----------------  -----------------
       1       -0.024735573135     0.003903947210     0.000000000000
       2        0.024735573135    -0.003903947210     0.000000000000
       3       -0.002952868556     0.014282183807     0.000000000000
       4        0.002952868556    -0.014282183807     0.000000000000
       5        0.005586688143     0.013581245840     0.000000000000
       6       -0.005586688143    -0.013581245840     0.000000000000
       7       -0.005023817628     0.013071712233     0.000000000000
       8        0.005023817628    -0.013071712233     0.000000000000
       9        0.009852687449     0.009824405803     0.000000000000
      10       -0.009852687449    -0.009824405803     0.000000000000
      11       -0.032893316889    -0.017480425628     0.000000000000
      12        0.032893316889     0.017480425628     0.000000000000
      13        0.003237913319    -0.014105485095     0.000000000000
      14       -0.003237913319     0.014105485095     0.000000000000
      15        0.023997696452     0.021039123863     0.000000000000
      16       -0.023997696452    -0.021039123863     0.000000000000
      17       -0.003373047159     0.013513988489     0.000000000000
      18        0.003373047159    -0.013513988489     0.000000000000
      19        0.013258888835    -0.003904064046     0.000000000000
      20       -0.013258888835     0.003904064046     0.000000000000

  Vibration                       4                   5                   6
  Freq [cm^-1]                 64.6066             88.6093             137.2473
  Irrep                           Bg                  Ag                  Au
  Reduced mass [u]              4.8995              4.6734              4.5434
  Force const [mDyne/A]         0.0120              0.0216              0.0504

  Vibration                       7                   8                   9
  Freq [cm^-1]                 162.9228            247.8585            257.6929
  Irrep                           Bg                  Bu                  Bg
  Reduced mass [u]              3.8146              3.8638              3.0644
  Force const [mDyne/A]         0.0597              0.1399              0.1199

  Vibration                       10                  11                  12
  Freq [cm^-1]                 319.6147            340.1423            417.5209
  Irrep                           Au                  Ag                  Bg
  Reduced mass [u]              2.0580              3.7528              2.2341
  Force const [mDyne/A]         0.1239              0.2558              0.2295

  Vibration                       13                  14                  15
  Freq [cm^-1]                 452.2568            522.1295            546.1986
  Irrep                           Ag                  Au                  Bu
  Reduced mass [u]              4.5222              3.1775              3.4537
  Force const [mDyne/A]         0.5450              0.5104              0.6071

  Vibration                       16                  17                  18
  Freq [cm^-1]                 597.7288            663.5430            729.4218
  Irrep                           Au                  Ag                  Ag
  Reduced mass [u]              2.3270              2.9197              6.9215
  Force const [mDyne/A]         0.4898              0.7574              2.1697

  Vibration                       19                  20                  21
  Freq [cm^-1]                 791.4042            806.9988            861.5092
  Irrep                           Bg                  Bu                  Au
  Reduced mass [u]              1.9652              3.1510              1.4403
  Force const [mDyne/A]         0.7252              1.2090              0.6298

  Vibration                       22                  23                  24
  Freq [cm^-1]                 923.7245            937.5504            997.8721
  Irrep                           Ag                  Bg                  Bu
  Reduced mass [u]              4.6546              2.7116              6.8681
  Force const [mDyne/A]         2.3400              1.4043              4.0294

  Vibration                       25                  26                  27
  Freq [cm^-1]                1062.5317           1078.6919           1160.8517
  Irrep                           Au                  Bg                  Bu
  Reduced mass [u]              1.5075              1.2296              3.1650
  Force const [mDyne/A]         1.0028              0.8430              2.5129

  Vibration                       28                  29                  30
  Freq [cm^-1]                1181.6049           1181.6757           1197.5953
  Irrep                           Au                  Bg                  Bg
  Reduced mass [u]              1.3453              1.3453              1.2599
  Force const [mDyne/A]         1.1066              1.1068              1.0647

  Vibration                       31                  32                  33
  Freq [cm^-1]                1221.6219           1231.5461           1236.4129
  Irrep                           Au                  Ag                  Bu
  Reduced mass [u]              1.3118              1.5346              1.4640
  Force const [mDyne/A]         1.1535              1.3714              1.3186

  Vibration                       34                  35                  36
  Freq [cm^-1]                1280.8290           1281.0695           1328.2389
  Irrep                           Au                  Bg                  Bu
  Reduced mass [u]              1.0985              1.0992              1.6256
  Force const [mDyne/A]         1.0618              1.0629              1.6898

  Vibration                       37                  38                  39
  Freq [cm^-1]                1381.0815           1387.8352           1426.7965
  Irrep                           Ag                  Ag                  Bu
  Reduced mass [u]              2.6279              1.3021              1.9712
  Force const [mDyne/A]         2.9532              1.4776              2.3643

  Vibration                       40                  41                  42
  Freq [cm^-1]                1533.4592           1542.5434           1558.1987
  Irrep                           Ag                  Bu                  Ag
  Reduced mass [u]              1.4436              1.3673              1.3575
  Force const [mDyne/A]         2.0001              1.9168              1.9419

  Vibration                       43                  44                  45
  Freq [cm^-1]                1636.4052           1714.7087           1726.9378
  Irrep                           Bu                  Ag                  Bu
  Reduced mass [u]              2.1966              1.4029              1.3175
  Force const [mDyne/A]         3.4656              2.4303              2.3150

  Vibration                       46                  47                  48
  Freq [cm^-1]                1786.9378           1807.2894           1874.3070
  Irrep                           Bu                  Ag                  Ag
  Reduced mass [u]              2.1542              3.5285              4.5271
  Force const [mDyne/A]         4.0527              6.7904              9.3703

  Vibration                       49                  50                  51
  Freq [cm^-1]                1942.6287           1944.9750           3519.8381
  Irrep                           Ag                  Bu                  Bu
  Reduced mass [u]              2.9398              2.9545              1.0639
  Force const [mDyne/A]         6.5365              6.5852              7.7657

  Vibration                       52                  53                  54
  Freq [cm^-1]                3521.1502           3565.6043           3565.7441
  Irrep                           Ag                  Bu                  Ag
  Reduced mass [u]              1.0638              1.0994              1.0995
  Force const [mDyne/A]         7.7712              8.2354              8.2366

  Vibration                       55                  56                  57
  Freq [cm^-1]                3575.5784           3582.4431           3602.7974
  Irrep                           Bu                  Ag                  Bu
  Reduced mass [u]              1.0930              1.0945              1.0994
  Force const [mDyne/A]         8.2331              8.2762              8.4077

  Vibration                       58                  59                  60
  Freq [cm^-1]                3605.9218           3680.4357           3680.4651
  Irrep                           Ag                  Bu                  Ag
  Reduced mass [u]              1.0997              1.1198              1.1198
  Force const [mDyne/A]         8.4251              8.9369              8.9369

  ==> Thermochemistry Components <==

  Entropy, S
    Electronic S            0.000 [cal/(mol K)]        0.000 [J/(mol K)]       0.00000000 [mEh/K] (multiplicity = 1)
    Translational S        40.502 [cal/(mol K)]      169.460 [J/(mol K)]       0.06454389 [mEh/K] (mol. weight = 130.0783 [u], P = 101325.00 [Pa])
    Rotational S           28.143 [cal/(mol K)]      117.751 [J/(mol K)]       0.04484898 [mEh/K] (symmetry no. = 2)
    Vibrational S          24.777 [cal/(mol K)]      103.667 [J/(mol K)]       0.03948467 [mEh/K]
  Total S                  93.422 [cal/(mol K)]      390.878 [J/(mol K)]       0.14887754 [mEh/K]
  Correction S              0.000 [cal/(mol K)]        0.000 [J/(mol K)]       0.00000000 [mEh/K]

  Constant volume heat capacity, Cv
    Electronic Cv           0.000 [cal/(mol K)]        0.000 [J/(mol K)]       0.00000000 [mEh/K]
    Translational Cv        2.981 [cal/(mol K)]       12.472 [J/(mol K)]       0.00475022 [mEh/K]
    Rotational Cv           2.981 [cal/(mol K)]       12.472 [J/(mol K)]       0.00475022 [mEh/K]
    Vibrational Cv         28.705 [cal/(mol K)]      120.104 [J/(mol K)]       0.04574501 [mEh/K]
  Total Cv                 34.667 [cal/(mol K)]      145.047 [J/(mol K)]       0.05524545 [mEh/K]
  Correction Cv             0.000 [cal/(mol K)]        0.000 [J/(mol K)]       0.00000000 [mEh/K]

  Constant pressure heat capacity, Cp
    Electronic Cp           0.000 [cal/(mol K)]        0.000 [J/(mol K)]       0.00000000 [mEh/K]
    Translational Cp        4.968 [cal/(mol K)]       20.786 [J/(mol K)]       0.00791704 [mEh/K]
    Rotational Cp           2.981 [cal/(mol K)]       12.472 [J/(mol K)]       0.00475022 [mEh/K]
    Vibrational Cp         28.705 [cal/(mol K)]      120.104 [J/(mol K)]       0.04574501 [mEh/K]
  Total Cp                 36.654 [cal/(mol K)]      153.361 [J/(mol K)]       0.05841227 [mEh/K]
  Correction Cp             0.000 [cal/(mol K)]        0.000 [J/(mol K)]       0.00000000 [mEh/K]

  ==> Thermochemistry Energy Analysis <==

  Raw electronic energy, E0
  Total E0, Electronic energy at well bottom at 0 [K]                 -379.77011151 [Eh]

  Zero-point energy, ZPE_vib = Sum_i nu_i / 2
    Electronic ZPE          0.000 [kcal/mol]        0.000 [kJ/mol]       0.00000000 [Eh]
    Translational ZPE       0.000 [kcal/mol]        0.000 [kJ/mol]       0.00000000 [Eh]
    Rotational ZPE          0.000 [kcal/mol]        0.000 [kJ/mol]       0.00000000 [Eh]
    Vibrational ZPE       120.761 [kcal/mol]      505.263 [kJ/mol]       0.19244431 [Eh]       42236.638 [cm^-1]
  Correction ZPE          120.761 [kcal/mol]      505.263 [kJ/mol]       0.19244431 [Eh]       42236.638 [cm^-1]
  Total ZPE, Electronic energy at 0 [K]                               -379.57766720 [Eh]

  Thermal Energy, E (includes ZPE)
    Electronic E            0.000 [kcal/mol]        0.000 [kJ/mol]       0.00000000 [Eh]
    Translational E         0.889 [kcal/mol]        3.718 [kJ/mol]       0.00141628 [Eh]
    Rotational E            0.889 [kcal/mol]        3.718 [kJ/mol]       0.00141628 [Eh]
    Vibrational E         124.861 [kcal/mol]      522.420 [kJ/mol]       0.19897921 [Eh]
  Correction E            126.639 [kcal/mol]      529.857 [kJ/mol]       0.20181177 [Eh]
  Total E, Electronic energy at  298.15 [K]                           -379.56829975 [Eh]

  Enthalpy, H_trans = E_trans + k_B * T
    Electronic H            0.000 [kcal/mol]        0.000 [kJ/mol]       0.00000000 [Eh]
    Translational H         1.481 [kcal/mol]        6.197 [kJ/mol]       0.00236046 [Eh]
    Rotational H            0.889 [kcal/mol]        3.718 [kJ/mol]       0.00141628 [Eh]
    Vibrational H         124.861 [kcal/mol]      522.420 [kJ/mol]       0.19897921 [Eh]
  Correction H            127.231 [kcal/mol]      532.336 [kJ/mol]       0.20275595 [Eh]
  Total H, Enthalpy at  298.15 [K]                                    -379.56735556 [Eh]

  Gibbs free energy, G = H - T * S
    Electronic G            0.000 [kcal/mol]        0.000 [kJ/mol]       0.00000000 [Eh]
    Translational G       -10.594 [kcal/mol]      -44.327 [kJ/mol]      -0.01688330 [Eh]
    Rotational G           -7.502 [kcal/mol]      -31.389 [kJ/mol]      -0.01195544 [Eh]
    Vibrational G         117.474 [kcal/mol]      491.512 [kJ/mol]       0.18720685 [Eh]
  Correction G             99.377 [kcal/mol]      415.795 [kJ/mol]       0.15836811 [Eh]
  Total G, Free enthalpy at  298.15 [K]                               -379.61174340 [Eh]

*** Psi4 exiting successfully. Buy a developer a beer!
