                               Psi4 1.2.1 release

  ==> Input File <==

--------------------------------------------------------------------------
molecule dvb {
    0 1
    C    -1.4152533224   0.2302217854   0.0000000000
    C     1.4152533224  -0.2302217854   0.0000000000
    C    -0.4951331558   1.3144608674   0.0000000000
    C     0.4951331558  -1.3144608674   0.0000000000
    C     0.8894090436   1.0909493743   0.0000000000
    C    -0.8894090436  -1.0909493743   0.0000000000
    H    -0.8795511985   2.3437343748   0.0000000000
    H     0.8795511985  -2.3437343748   0.0000000000
    H     1.5779041557   1.9450061275   0.0000000000
    H    -1.5779041557  -1.9450061275   0.0000000000
    C     2.8845844962  -0.5210893778   0.0000000000
    C    -2.8845844962   0.5210893778   0.0000000000
    H     3.1403356810  -1.5919605685   0.0000000000
    H    -3.1403356810   1.5919605685   0.0000000000
    C     3.8800428103   0.3822535424   0.0000000000
    C    -3.8800428103  -0.3822535424   0.0000000000
    H     3.6946765858   1.4624389570   0.0000000000
    H    -3.6946765858  -1.4624389570   0.0000000000
    H     4.9316453546   0.0711049543   0.0000000000
    H    -4.9316453546  -0.0711049543   0.0000000000
}

set {
    basis sto-3g
    print_basis true
    print_mos true
}

scf_e, scf_wfn = energy('scf', return_wfn=True)
oeprop(scf_wfn, 'MULLIKEN_CHARGES', 'LOWDIN_CHARGES', 'MULTIPOLE(5)')
--------------------------------------------------------------------------

    Molecular point group: c2h

    Geometry (in Angstrom), charge = 0, multiplicity = 1:

       Center              X                  Y                   Z               Mass
    ------------   -----------------  -----------------  -----------------  -----------------
         C           -1.415253322400     0.230221785400     0.000000000000    12.000000000000
         C            1.415253322400    -0.230221785400     0.000000000000    12.000000000000
         C           -0.495133155800     1.314460867400     0.000000000000    12.000000000000
         C            0.495133155800    -1.314460867400     0.000000000000    12.000000000000
         C            0.889409043600     1.090949374300     0.000000000000    12.000000000000
         C           -0.889409043600    -1.090949374300     0.000000000000    12.000000000000
         H           -0.879551198500     2.343734374800     0.000000000000     1.007825032070
         H            0.879551198500    -2.343734374800     0.000000000000     1.007825032070
         H            1.577904155700     1.945006127500     0.000000000000     1.007825032070
         H           -1.577904155700    -1.945006127500     0.000000000000     1.007825032070
         C            2.884584496200    -0.521089377800     0.000000000000    12.000000000000
         C           -2.884584496200     0.521089377800     0.000000000000    12.000000000000
         H            3.140335681000    -1.591960568500     0.000000000000     1.007825032070
         H           -3.140335681000     1.591960568500     0.000000000000     1.007825032070
         C            3.880042810300     0.382253542400     0.000000000000    12.000000000000
         C           -3.880042810300    -0.382253542400     0.000000000000    12.000000000000
         H            3.694676585800     1.462438957000     0.000000000000     1.007825032070
         H           -3.694676585800    -1.462438957000     0.000000000000     1.007825032070
         H            4.931645354600     0.071104954300     0.000000000000     1.007825032070
         H           -4.931645354600    -0.071104954300     0.000000000000     1.007825032070

  Charge       = 0
  Multiplicity = 1
  Basis Set: STO-3G
    Blend: STO-3G
  Basis Set: (STO-3G AUX)
    Blend: DEF2-SVP-JKFIT

    Orbital Energies [Eh]
    ---------------------

    Doubly Occupied:

       1Bu   -11.040746     1Ag   -11.040683     2Bu   -11.031750
       2Ag   -11.031749     3Bu   -11.029111     3Ag   -11.028981
       4Bu   -11.028766     4Ag   -11.028743     5Bu   -11.017630
       5Ag   -11.017630     6Ag    -1.090317     6Bu    -1.020272
       7Ag    -0.974940     7Bu    -0.950319     8Bu    -0.909650
       8Ag    -0.799895     9Ag    -0.762837     9Bu    -0.727642
      10Ag    -0.696780    11Ag    -0.628047    10Bu    -0.605675
      11Bu    -0.572947    12Bu    -0.553600    12Ag    -0.553161
      13Bu    -0.525353    14Bu    -0.496695    13Ag    -0.492528
       1Au    -0.463721    15Bu    -0.446433    14Ag    -0.421659
      15Ag    -0.415628     1Bg    -0.376953     2Au    -0.315119
       2Bg    -0.278352     3Bg    -0.222179

  @DF-RHF Final Energy:  -379.77011151443725

   => Energetics <=

    Nuclear Repulsion Energy =            445.9369781142434590
    One-Electron Energy =               -1400.2211775897972075
    Two-Electron Energy =                 574.5140879611165019
    Total Energy =                       -379.7701115144373034

  Dipole Moment: [D]
     X:     0.0000      Y:    -0.0000      Z:     0.0000     Total:     0.0000

 Dipole X            :          0.0000000            0.0000000            0.0000000
 Dipole Y            :          0.0000000           -0.0000000           -0.0000000
 Dipole Z            :          0.0000000            0.0000000            0.0000000

  Lowdin Charges: (a.u.)
   Center  Symbol    Alpha    Beta     Spin     Total
       1     C     2.99563  2.99563  0.00000  0.00874
       2     C     2.99563  2.99563  0.00000  0.00874
       3     C     3.01584  3.01584  0.00000 -0.03167
       4     C     3.01584  3.01584  0.00000 -0.03167
       5     C     3.01610  3.01610  0.00000 -0.03220
       6     C     3.01610  3.01610  0.00000 -0.03220
       7     H     0.48597  0.48597  0.00000  0.02806
       8     H     0.48597  0.48597  0.00000  0.02806
       9     H     0.48498  0.48498  0.00000  0.03004
      10     H     0.48498  0.48498  0.00000  0.03004
      11     C     3.01139  3.01139  0.00000 -0.02279
      12     C     3.01139  3.01139  0.00000 -0.02279
      13     H     0.48648  0.48648  0.00000  0.02703
      14     H     0.48648  0.48648  0.00000  0.02703
      15     C     3.03482  3.03482  0.00000 -0.06964
      16     C     3.03482  3.03482  0.00000 -0.06964
      17     H     0.48473  0.48473  0.00000  0.03054
      18     H     0.48473  0.48473  0.00000  0.03054
      19     H     0.48407  0.48407  0.00000  0.03187
      20     H     0.48407  0.48407  0.00000  0.03187

  Total alpha = 35.00000, Total beta = 35.00000, Total charge =  0.00000

*** Psi4 exiting successfully. Buy a developer a beer!
