                               Psi4 1.2.1 release

  ==> Input File <==

--------------------------------------------------------------------------
molecule dvb {
    1 2
    C    -1.4152533224   0.2302217854   0.0000000000
    C     1.4152533224  -0.2302217854   0.0000000000
    C    -0.4951331558   1.3144608674   0.0000000000
    C     0.4951331558  -1.3144608674   0.0000000000
    C     0.8894090436   1.0909493743   0.0000000000
    C    -0.8894090436  -1.0909493743   0.0000000000
    H    -0.8795511985   2.3437343748   0.0000000000
    H     0.8795511985  -2.3437343748   0.0000000000
    H     1.5779041557   1.9450061275   0.0000000000
    H    -1.5779041557  -1.9450061275   0.0000000000
    C     2.8845844962  -0.5210893778   0.0000000000
    C    -2.8845844962   0.5210893778   0.0000000000
    H     3.1403356810  -1.5919605685   0.0000000000
    H    -3.1403356810   1.5919605685   0.0000000000
    C     3.8800428103   0.3822535424   0.0000000000
    C    -3.8800428103  -0.3822535424   0.0000000000
    H     3.6946765858   1.4624389570   0.0000000000
    H    -3.6946765858  -1.4624389570   0.0000000000
    H     4.9316453546   0.0711049543   0.0000000000
    H    -4.9316453546  -0.0711049543   0.0000000000
}

set {
    basis sto-3g
    reference uhf
    print_basis true
    print_mos true
}

scf_e, scf_wfn = energy('scf', return_wfn=True)
oeprop(scf_wfn, 'MULLIKEN_CHARGES', 'LOWDIN_CHARGES', 'MULTIPOLE(5)')
--------------------------------------------------------------------------

    Molecular point group: c2h

    Geometry (in Angstrom), charge = 1, multiplicity = 2:

       Center              X                  Y                   Z               Mass
    ------------   -----------------  -----------------  -----------------  -----------------
         C           -1.415253322400     0.230221785400     0.000000000000    12.000000000000
         C            1.415253322400    -0.230221785400     0.000000000000    12.000000000000
         C           -0.495133155800     1.314460867400     0.000000000000    12.000000000000
         C            0.495133155800    -1.314460867400     0.000000000000    12.000000000000
         C            0.889409043600     1.090949374300     0.000000000000    12.000000000000
         C           -0.889409043600    -1.090949374300     0.000000000000    12.000000000000
         H           -0.879551198500     2.343734374800     0.000000000000     1.007825032070
         H            0.879551198500    -2.343734374800     0.000000000000     1.007825032070
         H            1.577904155700     1.945006127500     0.000000000000     1.007825032070
         H           -1.577904155700    -1.945006127500     0.000000000000     1.007825032070
         C            2.884584496200    -0.521089377800     0.000000000000    12.000000000000
         C           -2.884584496200     0.521089377800     0.000000000000    12.000000000000
         H            3.140335681000    -1.591960568500     0.000000000000     1.007825032070
         H           -3.140335681000     1.591960568500     0.000000000000     1.007825032070
         C            3.880042810300     0.382253542400     0.000000000000    12.000000000000
         C           -3.880042810300    -0.382253542400     0.000000000000    12.000000000000
         H            3.694676585800     1.462438957000     0.000000000000     1.007825032070
         H           -3.694676585800    -1.462438957000     0.000000000000     1.007825032070
         H            4.931645354600     0.071104954300     0.000000000000     1.007825032070
         H           -4.931645354600    -0.071104954300     0.000000000000     1.007825032070

  Charge       = 1
  Multiplicity = 2
  Basis Set: STO-3G
    Blend: STO-3G
  Basis Set: (STO-3G AUX)
    Blend: DEF2-SVP-JKFIT

    Orbital Energies [Eh]
    ---------------------

    Alpha Occupied:

       1Bu   -11.308052     1Ag   -11.307988     2Bu   -11.265077
       2Ag   -11.264996     3Bu   -11.259991     3Ag   -11.259915
       4Bu   -11.221146     4Ag   -11.221146     5Bu   -11.216830
       5Ag   -11.216829     6Ag    -1.326103     6Bu    -1.237221
       7Ag    -1.170208     7Bu    -1.166024     8Bu    -1.131156
       8Ag    -1.011059     9Ag    -0.981980     9Bu    -0.911678
      10Ag    -0.900332    11Ag    -0.820656    10Bu    -0.807014
      11Bu    -0.778420    12Bu    -0.759942    12Ag    -0.735560
      13Bu    -0.735159    14Bu    -0.697111     1Au    -0.694792
      13Ag    -0.679959    14Ag    -0.636818    15Bu    -0.632301
      15Ag    -0.616393     1Bg    -0.596614     2Au    -0.531873
       2Bg    -0.491539     3Bg    -0.479069

    Alpha Virtual:

       3Au    -0.047719     4Au     0.062139     4Bg     0.131906
       5Au     0.208905     5Bg     0.297058    16Ag     0.369829
      16Bu     0.380852    17Bu     0.420249    17Ag     0.436267
      18Ag     0.453031    18Bu     0.454852    19Ag     0.483613
      19Bu     0.492589    20Bu     0.516714    20Ag     0.544303
      21Ag     0.584310    21Bu     0.610141    22Ag     0.649265
      22Bu     0.673886    23Bu     0.723528    23Ag     0.738220
      24Ag     0.787926    24Bu     0.821086    25Ag     0.884301
      25Bu     0.891454

    Beta Occupied:

       1Bu   -11.296267     1Ag   -11.296227     2Bu   -11.265575
       2Ag   -11.265504     3Bu   -11.261969     3Ag   -11.261907
       4Ag   -11.237281     4Bu   -11.237281     5Ag   -11.197109
       5Bu   -11.197108     6Ag    -1.308288     6Bu    -1.222403
       7Bu    -1.169683     7Ag    -1.165539     8Bu    -1.089861
       8Ag    -0.994175     9Ag    -0.966880     9Bu    -0.908139
      10Ag    -0.893228    11Ag    -0.819828    10Bu    -0.803837
      11Bu    -0.771323    12Bu    -0.753854    13Bu    -0.735358
      12Ag    -0.731594    14Bu    -0.691296    13Ag    -0.677171
       1Au    -0.644457    14Ag    -0.632380    15Bu    -0.628294
      15Ag    -0.614932     1Bg    -0.561340     2Bg    -0.502075
       2Au    -0.489148

    Beta Virtual:

       3Bg    -0.148802     3Au     0.074513     4Au     0.085211
       4Bg     0.176059     5Au     0.238926     5Bg     0.328713
      16Ag     0.367403    16Bu     0.382430    17Bu     0.413785
      17Ag     0.437242    18Bu     0.465637    18Ag     0.465821
      19Bu     0.489570    19Ag     0.494344    20Bu     0.539301
      20Ag     0.563131    21Ag     0.586456    21Bu     0.618789
      22Ag     0.649182    22Bu     0.675456    23Bu     0.730145
      23Ag     0.740119    24Ag     0.791599    24Bu     0.825618
      25Ag     0.889417    25Bu     0.896422

    Final Occupation by Irrep:
             Ag    Bg    Au    Bu
    DOCC [    15,    2,    2,   15 ]
    SOCC [     0,    1,    0,    0 ]

  Energy converged.

  @DF-UHF Final Energy:  -379.60025441539642

   => Energetics <=

    Nuclear Repulsion Energy =            445.9369781142434590
    One-Electron Energy =               -1385.7121871012323027
    Two-Electron Energy =                 560.1749545715923659
    Total Energy =                       -379.6002544153965346

  UHF NO Occupations:
  HONO-2 :    2 Bg 1.8968903
  HONO-1 :    2 Au 1.8076988
  HONO-0 :    3 Bg 1.0000000
  LUNO+0 :    3 Au 0.1923012
  LUNO+1 :    4 Bg 0.1031097
  LUNO+2 :    4 Au 0.0216688
  LUNO+3 :   16 Ag 0.0019222

Properties will be evaluated at   0.000000,   0.000000,   0.000000 [a0]

Properties computed using the SCF density matrix

  Nuclear Dipole Moment: [e a0]
     X:     0.0000      Y:    -0.0000      Z:     0.0000

  Electronic Dipole Moment: [e a0]
     X:     0.0000      Y:     0.0000      Z:     0.0000

  Dipole Moment: [e a0]
     X:     0.0000      Y:    -0.0000      Z:     0.0000     Total:     0.0000

  Dipole Moment: [D]
     X:     0.0000      Y:    -0.0000      Z:     0.0000     Total:     0.0000

  ==> Alpha-Spin Molecular Orbitals <==

                            1            2            3            4            5

 1    C1 s0         0.7015007    0.7015370    0.0010802    0.0003969    0.0010355
 2    C1 s0         0.0256586    0.0255375    0.0049201    0.0047817    0.0052003
 3    C1 p0         0.0000000    0.0000000    0.0000000    0.0000000    0.0000000
 4    C1 p+1        0.0009247    0.0006959    0.0011664    0.0012599    0.0021170
 5    C1 p-1       -0.0000586   -0.0000174   -0.0029291   -0.0029049    0.0022063
 6    C2 s0        -0.7015007    0.7015370   -0.0010802    0.0003969   -0.0010355
 7    C2 s0        -0.0256586    0.0255375   -0.0049201    0.0047817   -0.0052003
 8    C2 p0         0.0000000    0.0000000    0.0000000    0.0000000    0.0000000
 9    C2 p+1        0.0009247   -0.0006959    0.0011664   -0.0012599    0.0021170
 10   C2 p-1       -0.0000586    0.0000174   -0.0029291    0.0029049    0.0022063
 11   C3 s0         0.0015872    0.0009515    0.0222208   -0.0121775   -0.7012862
 12   C3 s0        -0.0050659   -0.0047809   -0.0042918    0.0043496   -0.0253589
 13   C3 p0         0.0000000    0.0000000    0.0000000    0.0000000    0.0000000
 14   C3 p+1        0.0020042    0.0020647   -0.0030033    0.0031323   -0.0004512
 15   C3 p-1        0.0025046    0.0025110    0.0005449   -0.0006044    0.0010305
 16   C4 s0        -0.0015872    0.0009515   -0.0222208   -0.0121775    0.7012862
 17   C4 s0         0.0050659   -0.0047809    0.0042918    0.0043496    0.0253589
 18   C4 p0         0.0000000    0.0000000    0.0000000    0.0000000    0.0000000
 19   C4 p+1        0.0020042   -0.0020647   -0.0030033   -0.0031323   -0.0004512
 20   C4 p-1        0.0025046   -0.0025110    0.0005449    0.0006044    0.0010305
 21   C5 s0        -0.0017022    0.0010360    0.7012868   -0.7015734    0.0216937
 22   C5 s0         0.0050335   -0.0047318    0.0251232   -0.0250627    0.0058673
 23   C5 p0         0.0000000    0.0000000    0.0000000    0.0000000    0.0000000
 24   C5 p+1        0.0010997   -0.0011677   -0.0005378    0.0004053   -0.0030594
 25   C5 p-1       -0.0029937    0.0030054   -0.0008612    0.0006107    0.0003729
 26   C6 s0         0.0017022    0.0010360   -0.7012868   -0.7015734   -0.0216937
 27   C6 s0        -0.0050335   -0.0047318   -0.0251232   -0.0250627   -0.0058673
 28   C6 p0         0.0000000    0.0000000    0.0000000    0.0000000    0.0000000
 29   C6 p+1        0.0010997    0.0011677   -0.0005378   -0.0004053   -0.0030594
 30   C6 p-1       -0.0029937   -0.0030054   -0.0008612   -0.0006107    0.0003729
 31   H7 s0         0.0000900   -0.0000087   -0.0000225    0.0000872    0.0045716
 32   H8 s0        -0.0000900   -0.0000087    0.0000225    0.0000872   -0.0045716
 33   H9 s0        -0.0000827   -0.0000138   -0.0046043    0.0046964   -0.0002650
 34   H10 s0        0.0000827   -0.0000138    0.0046043    0.0046964    0.0002650
 35   C11 s0        0.0005932   -0.0006226   -0.0001277    0.0002664   -0.0002391
 36   C11 s0        0.0041874   -0.0042429    0.0001747   -0.0000864    0.0001930
 37   C11 p0        0.0000000    0.0000000    0.0000000    0.0000000    0.0000000
 38   C11 p+1      -0.0028861    0.0029264   -0.0000794   -0.0000091   -0.0000354
 39   C11 p-1       0.0006134   -0.0006210    0.0000039   -0.0000317    0.0000665
 40   C12 s0       -0.0005932   -0.0006226    0.0001277    0.0002664    0.0002391
 41   C12 s0       -0.0041874   -0.0042429   -0.0001747   -0.0000864   -0.0001930
 42   C12 p0        0.0000000    0.0000000    0.0000000    0.0000000    0.0000000
 43   C12 p+1      -0.0028861   -0.0029264   -0.0000794    0.0000091   -0.0000354
 44   C12 p-1       0.0006134    0.0006210    0.0000039    0.0000317    0.0000665
 45   H13 s0       -0.0000300    0.0000349   -0.0000313    0.0000522   -0.0000566
 46   H14 s0        0.0000300    0.0000349    0.0000313    0.0000522    0.0000566
 47   C15 s0        0.0001018   -0.0000960   -0.0002374    0.0002518   -0.0000713
 48   C15 s0       -0.0001337    0.0001335   -0.0000582    0.0000737   -0.0000619
 49   C15 p0        0.0000000    0.0000000    0.0000000    0.0000000    0.0000000
 50   C15 p+1       0.0000691   -0.0000721    0.0000585   -0.0000656    0.0000396
 51   C15 p-1      -0.0000593    0.0000600   -0.0000427    0.0000347    0.0000081
 52   C16 s0       -0.0001018   -0.0000960    0.0002374    0.0002518    0.0000713
 53   C16 s0        0.0001337    0.0001335    0.0000582    0.0000737    0.0000619
 54   C16 p0        0.0000000    0.0000000    0.0000000    0.0000000    0.0000000
 55   C16 p+1       0.0000691    0.0000721    0.0000585    0.0000656    0.0000396
 56   C16 p-1      -0.0000593   -0.0000600   -0.0000427   -0.0000347    0.0000081
 57   H17 s0        0.0001040   -0.0000990    0.0001055   -0.0001078    0.0000154
 58   H18 s0       -0.0001040   -0.0000990   -0.0001055   -0.0001078   -0.0000154
 59   H19 s0        0.0000221   -0.0000216   -0.0000187    0.0000173   -0.0000015
 60   H20 s0       -0.0000221   -0.0000216    0.0000187    0.0000173    0.0000015

            Ene   -11.3080518  -11.3079881  -11.2650775  -11.2649957  -11.2599912
            Sym            Bu           Ag           Bu           Ag           Bu
            Occ             1            1            1            1            1

                            6            7            8            9           10

 1    C1 s0         0.0003003    0.0012768    0.0013137    0.0000164   -0.0000081
 2    C1 s0         0.0045945   -0.0040314   -0.0040211    0.0004714   -0.0004714
 3    C1 p0         0.0000000    0.0000000    0.0000000    0.0000000    0.0000000
 4    C1 p+1        0.0020826    0.0028479    0.0028285   -0.0002598    0.0002564
 5    C1 p-1        0.0024271   -0.0004310   -0.0004269    0.0000642   -0.0000635
 6    C2 s0         0.0003003   -0.0012768    0.0013137   -0.0000164   -0.0000081
 7    C2 s0         0.0045945    0.0040314   -0.0040211   -0.0004714   -0.0004714
 8    C2 p0         0.0000000    0.0000000    0.0000000    0.0000000    0.0000000
 9    C2 p+1       -0.0020826    0.0028479   -0.0028285   -0.0002598   -0.0002564
 10   C2 p-1       -0.0024271   -0.0004310    0.0004269    0.0000642    0.0000635
 11   C3 s0        -0.7015803    0.0002556    0.0004320    0.0000516   -0.0000975
 12   C3 s0        -0.0251362    0.0001482    0.0000642   -0.0000304    0.0000793
 13   C3 p0         0.0000000    0.0000000    0.0000000    0.0000000    0.0000000
 14   C3 p+1       -0.0003172    0.0000188   -0.0000346    0.0000603   -0.0000220
 15   C3 p-1        0.0007263   -0.0000297    0.0000332    0.0000126   -0.0000169
 16   C4 s0        -0.7015803   -0.0002556    0.0004320   -0.0000516   -0.0000975
 17   C4 s0        -0.0251362   -0.0001482    0.0000642    0.0000304    0.0000793
 18   C4 p0         0.0000000    0.0000000    0.0000000    0.0000000    0.0000000
 19   C4 p+1        0.0003172    0.0000188    0.0000346    0.0000603    0.0000220
 20   C4 p-1       -0.0007263   -0.0000297   -0.0000332    0.0000126    0.0000169
 21   C5 s0         0.0115675   -0.0001606    0.0003032   -0.0002489   -0.0002503
 22   C5 s0         0.0051892   -0.0001963    0.0001204    0.0000401    0.0000438
 23   C5 p0         0.0000000    0.0000000    0.0000000    0.0000000    0.0000000
 24   C5 p+1       -0.0031751    0.0000107    0.0000541    0.0000926    0.0000902
 25   C5 p-1        0.0003910    0.0000209    0.0000184   -0.0000089   -0.0000026
 26   C6 s0         0.0115675    0.0001606    0.0003032    0.0002489   -0.0002503
 27   C6 s0         0.0051892    0.0001963    0.0001204   -0.0000401    0.0000438
 28   C6 p0         0.0000000    0.0000000    0.0000000    0.0000000    0.0000000
 29   C6 p+1        0.0031751    0.0000107   -0.0000541    0.0000926   -0.0000902
 30   C6 p-1       -0.0003910    0.0000209   -0.0000184   -0.0000089    0.0000026
 31   H7 s0         0.0046577   -0.0000247   -0.0000356   -0.0000018    0.0000022
 32   H8 s0         0.0046577    0.0000247   -0.0000356    0.0000018    0.0000022
 33   H9 s0        -0.0000706    0.0001083   -0.0001214   -0.0000669   -0.0000687
 34   H10 s0       -0.0000706   -0.0001083   -0.0001214    0.0000669   -0.0000687
 35   C11 s0        0.0003844   -0.6999126    0.6999126    0.0519329    0.0519395
 36   C11 s0       -0.0000862   -0.0238418    0.0238343    0.0075388    0.0075383
 37   C11 p0        0.0000000    0.0000000    0.0000000    0.0000000    0.0000000
 38   C11 p+1      -0.0000282   -0.0003503    0.0003563    0.0025727    0.0025730
 39   C11 p-1      -0.0000132   -0.0005259    0.0005248    0.0023847    0.0023843
 40   C12 s0        0.0003844    0.6999126    0.6999126   -0.0519329    0.0519395
 41   C12 s0       -0.0000862    0.0238418    0.0238343   -0.0075388    0.0075383
 42   C12 p0        0.0000000    0.0000000    0.0000000    0.0000000    0.0000000
 43   C12 p+1       0.0000282   -0.0003503   -0.0003563    0.0025727   -0.0025730
 44   C12 p-1       0.0000132   -0.0005259   -0.0005248    0.0023847   -0.0023843
 45   H13 s0        0.0000619    0.0045203   -0.0045205   -0.0003967   -0.0003965
 46   H14 s0        0.0000619   -0.0045203   -0.0045205    0.0003967   -0.0003965
 47   C15 s0        0.0001118   -0.0523599    0.0523664   -0.6994856   -0.6994852
 48   C15 s0        0.0000534    0.0032539   -0.0032538   -0.0265613   -0.0265611
 49   C15 p0        0.0000000    0.0000000    0.0000000    0.0000000    0.0000000
 50   C15 p+1      -0.0000521   -0.0022444    0.0022444    0.0011560    0.0011559
 51   C15 p-1      -0.0000050   -0.0019615    0.0019619    0.0010114    0.0010114
 52   C16 s0        0.0001118    0.0523599    0.0523664    0.6994856   -0.6994852
 53   C16 s0        0.0000534   -0.0032539   -0.0032538    0.0265613   -0.0265611
 54   C16 p0        0.0000000    0.0000000    0.0000000    0.0000000    0.0000000
 55   C16 p+1       0.0000521   -0.0022444   -0.0022444    0.0011560   -0.0011559
 56   C16 p-1       0.0000050   -0.0019615   -0.0019619    0.0010114   -0.0010114
 57   H17 s0        0.0000135    0.0002965   -0.0002965    0.0048950    0.0048950
 58   H18 s0        0.0000135   -0.0002965   -0.0002965   -0.0048950    0.0048950
 59   H19 s0        0.0000073    0.0002874   -0.0002875    0.0048738    0.0048738
 60   H20 s0        0.0000073   -0.0002874   -0.0002875   -0.0048738    0.0048738

            Ene   -11.2599150  -11.2211462  -11.2211457  -11.2168295  -11.2168294
            Sym            Ag           Bu           Ag           Bu           Ag
            Occ             1            1            1            1            1

                           11           12           13           14           15

 1    C1 s0         0.1147346    0.1292474    0.0122222    0.0129758    0.0759146
 2    C1 s0        -0.3078708   -0.3626901   -0.0395758   -0.0376000   -0.2187953
 3    C1 p0         0.0000000    0.0000000    0.0000000    0.0000000    0.0000000
 4    C1 p+1       -0.0536515    0.0081330    0.0983516   -0.0270187   -0.0762349
 5    C1 p-1        0.0091142    0.0032722   -0.0073545   -0.1400431    0.0231566
 6    C2 s0         0.1147346   -0.1292474    0.0122222   -0.0129758   -0.0759146
 7    C2 s0        -0.3078708    0.3626901   -0.0395758    0.0376000    0.2187953
 8    C2 p0         0.0000000    0.0000000    0.0000000    0.0000000    0.0000000
 9    C2 p+1        0.0536515    0.0081330   -0.0983516   -0.0270187   -0.0762349
 10   C2 p-1       -0.0091142    0.0032722    0.0073545   -0.1400431    0.0231566
 11   C3 s0         0.0947270    0.0475890   -0.0376564    0.1308450    0.0285948
 12   C3 s0        -0.2368985   -0.1233012    0.1003082   -0.3559783   -0.0776542
 13   C3 p0         0.0000000    0.0000000    0.0000000    0.0000000    0.0000000
 14   C3 p+1       -0.0122575    0.0726321    0.0337493   -0.0568525    0.0717234
 15   C3 p-1        0.0612808    0.0421605   -0.0151364    0.0151053    0.0356174
 16   C4 s0         0.0947270   -0.0475890   -0.0376564   -0.1308450   -0.0285948
 17   C4 s0        -0.2368985    0.1233012    0.1003082    0.3559783    0.0776542
 18   C4 p0         0.0000000    0.0000000    0.0000000    0.0000000    0.0000000
 19   C4 p+1        0.0122575    0.0726321   -0.0337493   -0.0568525    0.0717234
 20   C4 p-1       -0.0612808    0.0421605    0.0151364    0.0151053    0.0356174
 21   C5 s0         0.0961708   -0.0559572   -0.0320053    0.1204702   -0.0593804
 22   C5 s0        -0.2425780    0.1466289    0.0851503   -0.3305314    0.1634317
 23   C5 p0         0.0000000    0.0000000    0.0000000    0.0000000    0.0000000
 24   C5 p+1        0.0303475    0.0540289   -0.0457192    0.0707789    0.0309154
 25   C5 p-1        0.0550782   -0.0635564   -0.0011103   -0.0191209   -0.0504724
 26   C6 s0         0.0961708    0.0559572   -0.0320053   -0.1204702    0.0593804
 27   C6 s0        -0.2425780   -0.1466289    0.0851503    0.3305314   -0.1634317
 28   C6 p0         0.0000000    0.0000000    0.0000000    0.0000000    0.0000000
 29   C6 p+1       -0.0303475    0.0540289    0.0457192    0.0707789    0.0309154
 30   C6 p-1       -0.0550782   -0.0635564    0.0011103   -0.0191209   -0.0504724
 31   H7 s0        -0.0362863   -0.0274150    0.0175666   -0.0858610   -0.0186711
 32   H8 s0        -0.0362863    0.0274150    0.0175666    0.0858610    0.0186711
 33   H9 s0        -0.0374677    0.0332240    0.0106882   -0.0805844    0.0370406
 34   H10 s0       -0.0374677   -0.0332240    0.0106882    0.0805844   -0.0370406
 35   C11 s0        0.0360642   -0.0867615    0.1110767    0.0011614    0.0723742
 36   C11 s0       -0.0860995    0.2132552   -0.2790580   -0.0023750   -0.1832748
 37   C11 p0        0.0000000    0.0000000    0.0000000    0.0000000    0.0000000
 38   C11 p+1       0.0288904   -0.0263723   -0.0543998   -0.0159220   -0.1098121
 39   C11 p-1      -0.0118111    0.0336923   -0.0594863   -0.0181516   -0.0540852
 40   C12 s0        0.0360642    0.0867615    0.1110767   -0.0011614   -0.0723742
 41   C12 s0       -0.0860995   -0.2132552   -0.2790580    0.0023750    0.1832748
 42   C12 p0        0.0000000    0.0000000    0.0000000    0.0000000    0.0000000
 43   C12 p+1      -0.0288904   -0.0263723    0.0543998   -0.0159220   -0.1098121
 44   C12 p-1       0.0118111    0.0336923    0.0594863   -0.0181516   -0.0540852
 45   H13 s0       -0.0158720    0.0451369   -0.0653635    0.0066029   -0.0459807
 46   H14 s0       -0.0158720   -0.0451369   -0.0653635   -0.0066029    0.0459807
 47   C15 s0        0.0169428   -0.0618573    0.1285211    0.0139632    0.1288536
 48   C15 s0       -0.0459470    0.1705164   -0.3608541   -0.0387731   -0.3666403
 49   C15 p0        0.0000000    0.0000000    0.0000000    0.0000000    0.0000000
 50   C15 p+1       0.0152680   -0.0432049    0.0627392    0.0072658    0.0429908
 51   C15 p-1       0.0089697   -0.0286293    0.0504144    0.0004933    0.0434955
 52   C16 s0        0.0169428    0.0618573    0.1285211   -0.0139632   -0.1288536
 53   C16 s0       -0.0459470   -0.1705164   -0.3608541    0.0387731    0.3666403
 54   C16 p0        0.0000000    0.0000000    0.0000000    0.0000000    0.0000000
 55   C16 p+1      -0.0152680   -0.0432049   -0.0627392    0.0072658    0.0429908
 56   C16 p-1      -0.0089697   -0.0286293   -0.0504144    0.0004933    0.0434955
 57   H17 s0       -0.0076276    0.0314776   -0.0722812   -0.0105304   -0.0774207
 58   H18 s0       -0.0076276   -0.0314776   -0.0722812    0.0105304    0.0774207
 59   H19 s0       -0.0052318    0.0256742   -0.0676262   -0.0067491   -0.0784880
 60   H20 s0       -0.0052318   -0.0256742   -0.0676262    0.0067491    0.0784880

            Ene    -1.3261031   -1.2372207   -1.1702084   -1.1660239   -1.1311559
            Sym            Ag           Bu           Ag           Bu           Bu
            Occ             1            1            1            1            1

                           16           17           18           19           20

 1    C1 s0         0.0812329    0.0524335    0.0010630    0.0362942    0.0331505
 2    C1 s0        -0.2531176   -0.1647923    0.0020566   -0.1122110   -0.1154065
 3    C1 p0         0.0000000    0.0000000    0.0000000    0.0000000    0.0000000
 4    C1 p+1        0.0774813    0.0727497   -0.1902627   -0.1920182    0.1008717
 5    C1 p-1       -0.1369371    0.2112669    0.0708184    0.0029861   -0.0452741
 6    C2 s0         0.0812329    0.0524335   -0.0010630    0.0362942    0.0331505
 7    C2 s0        -0.2531176   -0.1647923   -0.0020566   -0.1122110   -0.1154065
 8    C2 p0         0.0000000    0.0000000    0.0000000    0.0000000    0.0000000
 9    C2 p+1       -0.0774813   -0.0727497   -0.1902627    0.1920182   -0.1008717
 10   C2 p-1        0.1369371   -0.2112669    0.0708184   -0.0029861    0.0452741
 11   C3 s0        -0.0023153   -0.1131776    0.0486212   -0.0154189    0.0127890
 12   C3 s0         0.0064145    0.3368525   -0.1509721    0.0551129   -0.0494268
 13   C3 p0         0.0000000    0.0000000    0.0000000    0.0000000    0.0000000
 14   C3 p+1        0.1825825   -0.0346584   -0.0026923    0.0566840    0.1499141
 15   C3 p-1        0.0397814    0.0554880    0.0100939    0.1919012   -0.1198692
 16   C4 s0        -0.0023153   -0.1131776   -0.0486212   -0.0154189    0.0127890
 17   C4 s0         0.0064145    0.3368525    0.1509721    0.0551129   -0.0494268
 18   C4 p0         0.0000000    0.0000000    0.0000000    0.0000000    0.0000000
 19   C4 p+1       -0.1825825    0.0346584   -0.0026923   -0.0566840   -0.1499141
 20   C4 p-1       -0.0397814   -0.0554880    0.0100939   -0.1919012    0.1198692
 21   C5 s0        -0.0916843    0.0546071   -0.0310576   -0.0449523   -0.0155089
 22   C5 s0         0.2689612   -0.1630574    0.0963297    0.1489902    0.0444466
 23   C5 p0         0.0000000    0.0000000    0.0000000    0.0000000    0.0000000
 24   C5 p+1       -0.0395233   -0.1801213    0.0824208    0.0467096   -0.1456294
 25   C5 p-1        0.0679423    0.0917791   -0.0433978    0.2001673   -0.0741780
 26   C6 s0        -0.0916843    0.0546071    0.0310576   -0.0449523   -0.0155089
 27   C6 s0         0.2689612   -0.1630574   -0.0963297    0.1489902    0.0444466
 28   C6 p0         0.0000000    0.0000000    0.0000000    0.0000000    0.0000000
 29   C6 p+1        0.0395233    0.1801213    0.0824208   -0.0467096    0.1456294
 30   C6 p-1       -0.0679423   -0.0917791   -0.0433978   -0.2001673    0.0741780
 31   H7 s0        -0.0111719    0.1501525   -0.0462474    0.1155721   -0.1230857
 32   H8 s0        -0.0111719    0.1501525    0.0462474    0.1155721   -0.1230857
 33   H9 s0         0.1070649   -0.0765869    0.0514422    0.1611911   -0.0879242
 34   H10 s0        0.1070649   -0.0765869   -0.0514422    0.1611911   -0.0879242
 35   C11 s0        0.0435814    0.0042424    0.1010707   -0.0610674   -0.0589000
 36   C11 s0       -0.1255674   -0.0134738   -0.3025002    0.1824367    0.1848894
 37   C11 p0        0.0000000    0.0000000    0.0000000    0.0000000    0.0000000
 38   C11 p+1       0.1250981    0.0721680    0.0682690   -0.0412522    0.1586509
 39   C11 p-1       0.0601031   -0.0301539    0.1000419   -0.0570706   -0.1116529
 40   C12 s0        0.0435814    0.0042424   -0.1010707   -0.0610674   -0.0589000
 41   C12 s0       -0.1255674   -0.0134738    0.3025002    0.1824367    0.1848894
 42   C12 p0        0.0000000    0.0000000    0.0000000    0.0000000    0.0000000
 43   C12 p+1      -0.1250981   -0.0721680    0.0682690    0.0412522   -0.1586509
 44   C12 p-1      -0.0601031    0.0301539    0.1000419    0.0570706    0.1116529
 45   H13 s0       -0.0601769    0.0243520   -0.1674238    0.1046732    0.1779956
 46   H14 s0       -0.0601769    0.0243520    0.1674238    0.1046732    0.1779956
 47   C15 s0       -0.0713052   -0.0388711   -0.0770985    0.0537274    0.0272250
 48   C15 s0        0.2137143    0.1195739    0.2481806   -0.1741561   -0.1001126
 49   C15 p0        0.0000000    0.0000000    0.0000000    0.0000000    0.0000000
 50   C15 p+1       0.0211045    0.0313959    0.0898324   -0.0740053   -0.0314500
 51   C15 p-1       0.0192526   -0.0120953    0.1108470   -0.0601969   -0.2207360
 52   C16 s0       -0.0713052   -0.0388711    0.0770985    0.0537274    0.0272250
 53   C16 s0        0.2137143    0.1195739   -0.2481806   -0.1741561   -0.1001126
 54   C16 p0        0.0000000    0.0000000    0.0000000    0.0000000    0.0000000
 55   C16 p+1      -0.0211045   -0.0313959    0.0898324    0.0740053    0.0314500
 56   C16 p-1      -0.0192526    0.0120953    0.1108470    0.0601969    0.2207360
 57   H17 s0        0.0712052    0.0235436    0.1341370   -0.0782816   -0.1734522
 58   H18 s0        0.0712052    0.0235436   -0.1341370   -0.0782816   -0.1734522
 59   H19 s0        0.0667248    0.0496619    0.1065328   -0.0836789   -0.0156622
 60   H20 s0        0.0667248    0.0496619   -0.1065328   -0.0836789   -0.0156622

            Ene    -1.0110589   -0.9819805   -0.9116776   -0.9003321   -0.8206564
            Sym            Ag           Ag           Bu           Ag           Ag
            Occ             1            1            1            1            1

                           21           22           23           24           25

 1    C1 s0         0.0224209    0.0643086    0.0037866    0.0149406    0.0008563
 2    C1 s0        -0.0819763   -0.2289629   -0.0105404   -0.0506392   -0.0020148
 3    C1 p0         0.0000000    0.0000000    0.0000000    0.0000000    0.0000000
 4    C1 p+1        0.1403317   -0.0585741   -0.1759469   -0.0281492   -0.1210986
 5    C1 p-1        0.2201974   -0.0891202    0.2186411   -0.0197888   -0.0474454
 6    C2 s0        -0.0224209   -0.0643086   -0.0037866    0.0149406   -0.0008563
 7    C2 s0         0.0819763    0.2289629    0.0105404   -0.0506392    0.0020148
 8    C2 p0         0.0000000    0.0000000    0.0000000    0.0000000    0.0000000
 9    C2 p+1        0.1403317   -0.0585741   -0.1759469    0.0281492   -0.1210986
 10   C2 p-1        0.2201974   -0.0891202    0.2186411    0.0197888   -0.0474454
 11   C3 s0        -0.0179403   -0.0509620    0.0020316   -0.0209840    0.0196806
 12   C3 s0         0.0618351    0.1780102   -0.0060174    0.0718513   -0.0591094
 13   C3 p0         0.0000000    0.0000000    0.0000000    0.0000000    0.0000000
 14   C3 p+1       -0.2497206    0.0463997   -0.0604617    0.0868668   -0.1644450
 15   C3 p-1       -0.0179848    0.2376997   -0.0675602    0.0051999    0.3046922
 16   C4 s0         0.0179403    0.0509620   -0.0020316   -0.0209840   -0.0196806
 17   C4 s0        -0.0618351   -0.1780102    0.0060174    0.0718513    0.0591094
 18   C4 p0         0.0000000    0.0000000    0.0000000    0.0000000    0.0000000
 19   C4 p+1       -0.2497206    0.0463997   -0.0604617   -0.0868668   -0.1644450
 20   C4 p-1       -0.0179848    0.2376997   -0.0675602   -0.0051999    0.3046922
 21   C5 s0         0.0362376    0.0472973   -0.0170353    0.0165342    0.0104365
 22   C5 s0        -0.1205906   -0.1674110    0.0528805   -0.0622168   -0.0313041

 Dipole X            :          0.0000000            0.0000000            0.0000000
 Dipole Y            :          0.0000000           -0.0000000           -0.0000000
 Dipole Z            :          0.0000000            0.0000000            0.0000000

  Lowdin Charges: (a.u.)
   Center  Symbol    Alpha    Beta     Spin     Total
       1     C     3.15961  2.71703  0.44258  0.12336
       2     C     3.15961  2.71703  0.44258  0.12336
       3     C     2.96240  3.02148 -0.05908  0.01612
       4     C     2.96240  3.02148 -0.05908  0.01612
       5     C     2.98693  2.99066 -0.00372  0.02241
       6     C     2.98693  2.99066 -0.00372  0.02241
       7     H     0.46436  0.46114  0.00322  0.07450
       8     H     0.46436  0.46114  0.00322  0.07450
       9     H     0.46288  0.46278  0.00010  0.07434
      10     H     0.46288  0.46278  0.00010  0.07434
      11     C     2.71009  3.28769 -0.57760  0.00221
      12     C     2.71009  3.28769 -0.57760  0.00221
      13     H     0.48737  0.45253  0.03484  0.06010
      14     H     0.48737  0.45253  0.03484  0.06010
      15     C     3.37515  2.62577  0.74939 -0.00092
      16     C     3.37515  2.62577  0.74939 -0.00092
      17     H     0.45018  0.49434 -0.04416  0.05548
      18     H     0.45018  0.49434 -0.04416  0.05548
      19     H     0.44102  0.48658 -0.04556  0.07240
      20     H     0.44102  0.48658 -0.04556  0.07240

  Total alpha = 35.00000, Total beta = 34.00000, Total charge =  1.00000

*** Psi4 exiting successfully. Buy a developer a beer!
