                               Psi4 1.2.1 release

  ==> Input File <==

--------------------------------------------------------------------------
molecule dvb {
    1 2
    C    -1.4152533224   0.2302217854   0.0000000000
    C     1.4152533224  -0.2302217854   0.0000000000
    C    -0.4951331558   1.3144608674   0.0000000000
    C     0.4951331558  -1.3144608674   0.0000000000
    C     0.8894090436   1.0909493743   0.0000000000
    C    -0.8894090436  -1.0909493743   0.0000000000
    H    -0.8795511985   2.3437343748   0.0000000000
    H     0.8795511985  -2.3437343748   0.0000000000
    H     1.5779041557   1.9450061275   0.0000000000
    H    -1.5779041557  -1.9450061275   0.0000000000
    C     2.8845844962  -0.5210893778   0.0000000000
    C    -2.8845844962   0.5210893778   0.0000000000
    H     3.1403356810  -1.5919605685   0.0000000000
    H    -3.1403356810   1.5919605685   0.0000000000
    C     3.8800428103   0.3822535424   0.0000000000
    C    -3.8800428103  -0.3822535424   0.0000000000
    H     3.6946765858   1.4624389570   0.0000000000
    H    -3.6946765858  -1.4624389570   0.0000000000
    H     4.9316453546   0.0711049543   0.0000000000
    H    -4.9316453546  -0.0711049543   0.0000000000
}

set {
    basis sto-3g
    reference uhf
    print_basis true
    print_mos true
}

b3lyp_e, b3lyp_wfn = energy('b3lyp', return_wfn=True)
oeprop(b3lyp_wfn, 'MULLIKEN_CHARGES', 'LOWDIN_CHARGES', 'MULTIPOLES(5)')
--------------------------------------------------------------------------

    Molecular point group: c2h

    Geometry (in Angstrom), charge = 1, multiplicity = 2:

       Center              X                  Y                   Z               Mass
    ------------   -----------------  -----------------  -----------------  -----------------
         C           -1.415253322400     0.230221785400     0.000000000000    12.000000000000
         C            1.415253322400    -0.230221785400     0.000000000000    12.000000000000
         C           -0.495133155800     1.314460867400     0.000000000000    12.000000000000
         C            0.495133155800    -1.314460867400     0.000000000000    12.000000000000
         C            0.889409043600     1.090949374300     0.000000000000    12.000000000000
         C           -0.889409043600    -1.090949374300     0.000000000000    12.000000000000
         H           -0.879551198500     2.343734374800     0.000000000000     1.007825032070
         H            0.879551198500    -2.343734374800     0.000000000000     1.007825032070
         H            1.577904155700     1.945006127500     0.000000000000     1.007825032070
         H           -1.577904155700    -1.945006127500     0.000000000000     1.007825032070
         C            2.884584496200    -0.521089377800     0.000000000000    12.000000000000
         C           -2.884584496200     0.521089377800     0.000000000000    12.000000000000
         H            3.140335681000    -1.591960568500     0.000000000000     1.007825032070
         H           -3.140335681000     1.591960568500     0.000000000000     1.007825032070
         C            3.880042810300     0.382253542400     0.000000000000    12.000000000000
         C           -3.880042810300    -0.382253542400     0.000000000000    12.000000000000
         H            3.694676585800     1.462438957000     0.000000000000     1.007825032070
         H           -3.694676585800    -1.462438957000     0.000000000000     1.007825032070
         H            4.931645354600     0.071104954300     0.000000000000     1.007825032070
         H           -4.931645354600    -0.071104954300     0.000000000000     1.007825032070

  Charge       = 1
  Multiplicity = 2
  Basis Set: STO-3G
    Blend: STO-3G
  Basis Set: (STO-3G AUX)
    Blend: DEF2-SVP-JKFIT

    Orbital Energies [Eh]
    ---------------------

    Alpha Occupied:

       1Bu   -10.253862     1Ag   -10.253812     2Bu   -10.219794
       2Ag   -10.219753     3Bu   -10.218333     3Ag   -10.218235
       4Bu   -10.217851     4Ag   -10.217847     5Bu   -10.215527
       5Ag   -10.215526     6Ag    -1.020772     6Bu    -0.961941
       7Ag    -0.921638     7Bu    -0.899269     8Bu    -0.876744
       8Ag    -0.787127     9Ag    -0.759879     9Bu    -0.722513
      10Ag    -0.703603    11Ag    -0.650481    10Bu    -0.634983
      11Bu    -0.604004    12Bu    -0.596096    12Ag    -0.587826
      13Bu    -0.568859    14Bu    -0.552252    13Ag    -0.537112
       1Au    -0.533640    15Bu    -0.501065    14Ag    -0.493313
      15Ag    -0.482726     1Bg    -0.473621     2Au    -0.417915
       2Bg    -0.394351     3Bg    -0.369713

    Alpha Virtual:

       3Au    -0.177449     4Au    -0.111529     4Bg    -0.094356
       5Au    -0.029620     5Bg     0.059962    16Ag     0.139704
      16Bu     0.148995    17Bu     0.179248    17Ag     0.196441
      18Ag     0.214669    18Bu     0.220338    19Ag     0.239662
      19Bu     0.240563    20Bu     0.262992    20Ag     0.285296
      21Ag     0.319779    21Bu     0.344272    22Ag     0.379980
      22Bu     0.397829    23Bu     0.425459    23Ag     0.438158
      24Ag     0.477752    24Bu     0.506042    25Ag     0.567614
      25Bu     0.581738

    Beta Occupied:

       1Bu   -10.250886     1Ag   -10.250840     2Bu   -10.219468
       2Ag   -10.219431     3Ag   -10.218696     3Bu   -10.218695
       4Bu   -10.218128     4Ag   -10.218025     5Ag   -10.211062
       5Bu   -10.211062     6Ag    -1.014718     6Bu    -0.954504
       7Ag    -0.913763     7Bu    -0.897619     8Bu    -0.864547
       8Ag    -0.781840     9Ag    -0.755815     9Bu    -0.718616
      10Ag    -0.700471    11Ag    -0.648283    10Bu    -0.632912
      11Bu    -0.601294    12Bu    -0.593264    12Ag    -0.584927
      13Bu    -0.568155    14Bu    -0.549303    13Ag    -0.535161
       1Au    -0.517369    15Bu    -0.499448    14Ag    -0.491808
      15Ag    -0.481158     1Bg    -0.450802     2Bg    -0.391168
       2Au    -0.388746

    Beta Virtual:

       3Bg    -0.300480     3Au    -0.147017     4Au    -0.103424
       4Bg    -0.073648     5Au    -0.008256     5Bg     0.076152
      16Ag     0.142156    16Bu     0.150869    17Bu     0.181147
      17Ag     0.197918    18Ag     0.220336    18Bu     0.225725
      19Bu     0.242012    19Ag     0.246315    20Bu     0.270006
      20Ag     0.290444    21Ag     0.323507    21Bu     0.347725
      22Ag     0.381476    22Bu     0.400009    23Bu     0.429781
      23Ag     0.440725    24Ag     0.481531    24Bu     0.511458
      25Ag     0.571352    25Bu     0.584878

    Final Occupation by Irrep:
             Ag    Bg    Au    Bu
    DOCC [    15,    2,    2,   15 ]
    SOCC [     0,    1,    0,    0 ]

  Energy converged.

  @DF-UKS Final Energy:  -382.08410944295110

   => Energetics <=

    Nuclear Repulsion Energy =            445.9369781142434590
    One-Electron Energy =               -1386.6343722150681970
    Two-Electron Energy =                 605.0060149694853635
    DFT Exchange-Correlation Energy =     -46.3927303116117784
    Empirical Dispersion Energy =           0.0000000000000000
    VV10 Nonlocal Energy =                  0.0000000000000000
    Total Energy =                       -382.0841094429512168

  UHF NO Occupations:
  HONO-2 :    2 Bg 1.9974737
  HONO-1 :    2 Au 1.9899391
  HONO-0 :    3 Bg 1.0000000
  LUNO+0 :    3 Au 0.0100609
  LUNO+1 :    4 Bg 0.0025263
  LUNO+2 :    4 Au 0.0008987
  LUNO+3 :   16 Ag 0.0000999

Properties will be evaluated at   0.000000,   0.000000,   0.000000 [a0]

Properties computed using the SCF density matrix

  Nuclear Dipole Moment: [e a0]
     X:     0.0000      Y:    -0.0000      Z:     0.0000

  Electronic Dipole Moment: [e a0]
     X:     0.0000      Y:     0.0000      Z:     0.0000

  Dipole Moment: [e a0]
     X:     0.0000      Y:    -0.0000      Z:     0.0000     Total:     0.0000

  Dipole Moment: [D]
     X:     0.0000      Y:    -0.0000      Z:     0.0000     Total:     0.0000

  ==> Alpha-Spin Molecular Orbitals <==

                            1            2            3            4            5

 1    C1 s0         0.7002685    0.7002922    0.0099095    0.0062200    0.0057741
 2    C1 s0         0.0312628    0.0310686   -0.0075792   -0.0040934   -0.0046681
 3    C1 p0         0.0000000    0.0000000    0.0000000    0.0000000    0.0000000
 4    C1 p+1        0.0010238    0.0007504   -0.0024092   -0.0008521   -0.0025862
 5    C1 p-1       -0.0000442    0.0000057    0.0032160    0.0048272   -0.0040499
 6    C2 s0        -0.7002685    0.7002922   -0.0099095    0.0062200   -0.0057741
 7    C2 s0        -0.0312628    0.0310686    0.0075792   -0.0040934    0.0046681
 8    C2 p0         0.0000000    0.0000000    0.0000000    0.0000000    0.0000000
 9    C2 p+1        0.0010238   -0.0007504   -0.0024092    0.0008521   -0.0025862
 10   C2 p-1       -0.0000442   -0.0000057    0.0032160   -0.0048272   -0.0040499
 11   C3 s0        -0.0070228   -0.0074461    0.1556302   -0.1800579    0.6827880
 12   C3 s0        -0.0071257   -0.0065326    0.0134920   -0.0141729    0.0287401
 13   C3 p0         0.0000000    0.0000000    0.0000000    0.0000000    0.0000000
 14   C3 p+1        0.0026965    0.0029172    0.0043543   -0.0043184   -0.0004773
 15   C3 p-1        0.0035409    0.0033641   -0.0010600    0.0009902   -0.0009059
 16   C4 s0         0.0070228   -0.0074461   -0.1556302   -0.1800579   -0.6827880
 17   C4 s0         0.0071257   -0.0065326   -0.0134920   -0.0141729   -0.0287401
 18   C4 p0         0.0000000    0.0000000    0.0000000    0.0000000    0.0000000
 19   C4 p+1        0.0026965   -0.0029172    0.0043543    0.0043184   -0.0004773
 20   C4 p-1        0.0035409   -0.0033641   -0.0010600   -0.0009902   -0.0009059
 21   C5 s0         0.0073456   -0.0077264   -0.6826785    0.6766722    0.1566272
 22   C5 s0         0.0070945   -0.0064848   -0.0317787    0.0314717    0.0003423
 23   C5 p0         0.0000000    0.0000000    0.0000000    0.0000000    0.0000000
 24   C5 p+1        0.0014273   -0.0017043    0.0017729   -0.0017253    0.0041021
 25   C5 p-1       -0.0041883    0.0040716    0.0007412   -0.0004282   -0.0007585
 26   C6 s0        -0.0073456   -0.0077264    0.6826785    0.6766722   -0.1566272
 27   C6 s0        -0.0070945   -0.0064848    0.0317787    0.0314717   -0.0003423
 28   C6 p0         0.0000000    0.0000000    0.0000000    0.0000000    0.0000000
 29   C6 p+1        0.0014273    0.0017043    0.0017729    0.0017253    0.0041021
 30   C6 p-1       -0.0041883   -0.0040716    0.0007412    0.0004282   -0.0007585
 31   H7 s0         0.0002229    0.0001108   -0.0015682    0.0016691   -0.0060393
 32   H8 s0        -0.0002229    0.0001108    0.0015682    0.0016691    0.0060393
 33   H9 s0        -0.0002182    0.0001087    0.0061597   -0.0061706   -0.0012234
 34   H10 s0        0.0002182    0.0001087   -0.0061597   -0.0061706    0.0012234
 35   C11 s0        0.0088365   -0.0089456    0.0017224   -0.0040140    0.0134277
 36   C11 s0        0.0058776   -0.0059397   -0.0001604   -0.0001053    0.0004485
 37   C11 p0        0.0000000    0.0000000    0.0000000    0.0000000    0.0000000
 38   C11 p+1      -0.0039859    0.0040287    0.0000532    0.0000511    0.0000416
 39   C11 p-1       0.0008653   -0.0008736   -0.0000668    0.0001166    0.0000051
 40   C12 s0       -0.0088365   -0.0089456   -0.0017224   -0.0040140   -0.0134277
 41   C12 s0       -0.0058776   -0.0059397    0.0001604   -0.0001053   -0.0004485
 42   C12 p0        0.0000000    0.0000000    0.0000000    0.0000000    0.0000000
 43   C12 p+1      -0.0039859   -0.0040287    0.0000532   -0.0000511    0.0000416
 44   C12 p-1       0.0008653    0.0008736   -0.0000668   -0.0001166    0.0000051
 45   H13 s0       -0.0001536    0.0001616    0.0000268   -0.0000123   -0.0000757
 46   H14 s0        0.0001536    0.0001616   -0.0000268   -0.0000123    0.0000757
 47   C15 s0       -0.0000366    0.0000436    0.0027243   -0.0020416   -0.0004413
 48   C15 s0       -0.0002729    0.0002730    0.0001917   -0.0001319   -0.0001165
 49   C15 p0        0.0000000    0.0000000    0.0000000    0.0000000    0.0000000
 50   C15 p+1       0.0001898   -0.0001947   -0.0000687    0.0000374    0.0000400
 51   C15 p-1      -0.0000832    0.0000837    0.0000516   -0.0000527    0.0000407
 52   C16 s0        0.0000366    0.0000436   -0.0027243   -0.0020416    0.0004413
 53   C16 s0        0.0002729    0.0002730   -0.0001917   -0.0001319    0.0001165
 54   C16 p0        0.0000000    0.0000000    0.0000000    0.0000000    0.0000000
 55   C16 p+1       0.0001898    0.0001947   -0.0000687   -0.0000374    0.0000400
 56   C16 p-1      -0.0000832   -0.0000837    0.0000516    0.0000527    0.0000407
 57   H17 s0        0.0001406   -0.0001331   -0.0001926    0.0001908    0.0000260
 58   H18 s0       -0.0001406   -0.0001331    0.0001926    0.0001908   -0.0000260
 59   H19 s0        0.0000238   -0.0000229   -0.0000026    0.0000017    0.0000038
 60   H20 s0       -0.0000238   -0.0000229    0.0000026    0.0000017   -0.0000038

            Ene   -10.2538621  -10.2538116  -10.2197943  -10.2197533  -10.2183332
            Sym            Bu           Ag           Bu           Ag           Bu
            Occ             1            1            1            1            1

                            6            7            8            9           10

 1    C1 s0         0.0096288    0.0099893    0.0107986    0.0008578    0.0009038
 2    C1 s0        -0.0067072   -0.0051808   -0.0056231   -0.0002475   -0.0002698
 3    C1 p0         0.0000000    0.0000000    0.0000000    0.0000000    0.0000000
 4    C1 p+1       -0.0034762    0.0040087    0.0037617    0.0002437    0.0002333
 5    C1 p-1       -0.0021264   -0.0006952   -0.0007601   -0.0000662   -0.0000729
 6    C2 s0         0.0096288   -0.0099893    0.0107986   -0.0008578    0.0009038
 7    C2 s0        -0.0067072    0.0051808   -0.0056231    0.0002475   -0.0002698
 8    C2 p0         0.0000000    0.0000000    0.0000000    0.0000000    0.0000000
 9    C2 p+1        0.0034762    0.0040087   -0.0037617    0.0002437   -0.0002333
 10   C2 p-1        0.0021264   -0.0006952    0.0007601   -0.0000662    0.0000729
 11   C3 s0         0.6749169    0.0133253    0.0521138    0.0013338    0.0037181
 12   C3 s0         0.0280382    0.0006789    0.0021539    0.0000712    0.0000553
 13   C3 p0         0.0000000    0.0000000    0.0000000    0.0000000    0.0000000
 14   C3 p+1       -0.0007303   -0.0000268   -0.0001555    0.0000918    0.0000071
 15   C3 p-1       -0.0005371   -0.0000009    0.0000689    0.0000033    0.0000237
 16   C4 s0         0.6749169   -0.0133253    0.0521138   -0.0013338    0.0037181
 17   C4 s0         0.0280382   -0.0006789    0.0021539   -0.0000712    0.0000553
 18   C4 p0         0.0000000    0.0000000    0.0000000    0.0000000    0.0000000
 19   C4 p+1        0.0007303   -0.0000268    0.0001555    0.0000918   -0.0000071
 20   C4 p-1        0.0005371   -0.0000009   -0.0000689    0.0000033   -0.0000237
 21   C5 s0         0.1801080    0.0016602    0.0178078   -0.0026435    0.0034698
 22   C5 s0         0.0017003   -0.0002245    0.0004015   -0.0000897    0.0000572
 23   C5 p0         0.0000000    0.0000000    0.0000000    0.0000000    0.0000000
 24   C5 p+1        0.0040747    0.0000260    0.0004362    0.0001118   -0.0000636
 25   C5 p-1       -0.0007343   -0.0000334    0.0000236   -0.0000068    0.0000046
 26   C6 s0         0.1801080   -0.0016602    0.0178078    0.0026435    0.0034698
 27   C6 s0         0.0017003    0.0002245    0.0004015    0.0000897    0.0000572
 28   C6 p0         0.0000000    0.0000000    0.0000000    0.0000000    0.0000000
 29   C6 p+1       -0.0040747    0.0000260   -0.0004362    0.0001118    0.0000636
 30   C6 p-1        0.0007343   -0.0000334   -0.0000236   -0.0000068   -0.0000046
 31   H7 s0        -0.0060977   -0.0001280   -0.0004966   -0.0000226   -0.0000471
 32   H8 s0        -0.0060977    0.0001280   -0.0004966    0.0000226   -0.0000471
 33   H9 s0        -0.0015890    0.0001354   -0.0003259   -0.0000737    0.0000655
 34   H10 s0       -0.0015890   -0.0001354   -0.0003259    0.0000737    0.0000655
 35   C11 s0       -0.0551828   -0.6976784    0.6956036   -0.0610170    0.0611186
 36   C11 s0       -0.0023239   -0.0312702    0.0311732    0.0046771   -0.0046734
 37   C11 p0        0.0000000    0.0000000    0.0000000    0.0000000    0.0000000
 38   C11 p+1      -0.0000316   -0.0012352    0.0012489    0.0033312   -0.0033293
 39   C11 p-1      -0.0000977   -0.0011668    0.0011615    0.0030708   -0.0030704
 40   C12 s0       -0.0551828    0.6976784    0.6956036    0.0610170    0.0611186
 41   C12 s0       -0.0023239    0.0312702    0.0311732   -0.0046771   -0.0046734
 42   C12 p0        0.0000000    0.0000000    0.0000000    0.0000000    0.0000000
 43   C12 p+1       0.0000316   -0.0012352   -0.0012489    0.0033312    0.0033293
 44   C12 p-1       0.0000977   -0.0011668   -0.0011615    0.0030708    0.0030704
 45   H13 s0        0.0004164    0.0063230   -0.0063099    0.0004266   -0.0004282
 46   H14 s0        0.0004164   -0.0063230   -0.0063099   -0.0004266   -0.0004282
 47   C15 s0        0.0002945    0.0601467   -0.0604162   -0.6979227    0.6979019
 48   C15 s0        0.0005155    0.0099282   -0.0099238   -0.0302714    0.0302689
 49   C15 p0        0.0000000    0.0000000    0.0000000    0.0000000    0.0000000
 50   C15 p+1      -0.0001852   -0.0035304    0.0035268    0.0008342   -0.0008332
 51   C15 p-1      -0.0002511   -0.0031213    0.0031119    0.0007628   -0.0007623
 52   C16 s0        0.0002945   -0.0601467   -0.0604162    0.6979227    0.6979019
 53   C16 s0        0.0005155   -0.0099282   -0.0099238    0.0302714    0.0302689
 54   C16 p0        0.0000000    0.0000000    0.0000000    0.0000000    0.0000000
 55   C16 p+1       0.0001852   -0.0035304   -0.0035268    0.0008342    0.0008332
 56   C16 p-1       0.0002511   -0.0031213   -0.0031119    0.0007628    0.0007623
 57   H17 s0        0.0000048   -0.0006679    0.0006726    0.0063141   -0.0063139
 58   H18 s0        0.0000048    0.0006679    0.0006726   -0.0063141   -0.0063139
 59   H19 s0       -0.0000329   -0.0006839    0.0006844    0.0062984   -0.0062983
 60   H20 s0       -0.0000329    0.0006839    0.0006844   -0.0062984   -0.0062983

            Ene   -10.2182350  -10.2178509  -10.2178474  -10.2155267  -10.2155265
            Sym            Ag           Bu           Ag           Bu           Ag
            Occ             1            1            1            1            1

                           11           12           13           14           15

 1    C1 s0         0.1123601    0.1122949    0.0052689    0.0174212    0.0954033
 2    C1 s0        -0.2906210   -0.3021411   -0.0173240   -0.0483085   -0.2668772
 3    C1 p0         0.0000000    0.0000000    0.0000000    0.0000000    0.0000000
 4    C1 p+1       -0.0478411    0.0254853    0.1005033   -0.0277635   -0.0670594
 5    C1 p-1        0.0075904   -0.0008176   -0.0090081   -0.1352762    0.0267257
 6    C2 s0         0.1123601   -0.1122949    0.0052689   -0.0174212   -0.0954033
 7    C2 s0        -0.2906210    0.3021411   -0.0173240    0.0483085    0.2668772
 8    C2 p0         0.0000000    0.0000000    0.0000000    0.0000000    0.0000000
 9    C2 p+1        0.0478411    0.0254853   -0.1005033   -0.0277635   -0.0670594
 10   C2 p-1       -0.0075904   -0.0008176    0.0090081   -0.1352762    0.0267257
 11   C3 s0         0.0956315    0.0408134   -0.0439232    0.1345611    0.0323148
 12   C3 s0        -0.2392144   -0.1057770    0.1147790   -0.3639402   -0.0882148
 13   C3 p0         0.0000000    0.0000000    0.0000000    0.0000000    0.0000000
 14   C3 p+1       -0.0122220    0.0621069    0.0345383   -0.0512228    0.0874893
 15   C3 p-1        0.0611327    0.0334826   -0.0200204    0.0114110    0.0406843
 16   C4 s0         0.0956315   -0.0408134   -0.0439232   -0.1345611   -0.0323148
 17   C4 s0        -0.2392144    0.1057770    0.1147790    0.3639402    0.0882148
 18   C4 p0         0.0000000    0.0000000    0.0000000    0.0000000    0.0000000
 19   C4 p+1        0.0122220    0.0621069   -0.0345383   -0.0512228    0.0874893
 20   C4 p-1       -0.0611327    0.0334826    0.0200204    0.0114110    0.0406843
 21   C5 s0         0.0961584   -0.0466950   -0.0388520    0.1182699   -0.0749068
 22   C5 s0        -0.2411756    0.1218136    0.1011871   -0.3204166    0.2052999
 23   C5 p0         0.0000000    0.0000000    0.0000000    0.0000000    0.0000000
 24   C5 p+1        0.0302175    0.0483074   -0.0468721    0.0692498    0.0391799
 25   C5 p-1        0.0543557   -0.0515209   -0.0060746   -0.0256853   -0.0573521
 26   C6 s0         0.0961584    0.0466950   -0.0388520   -0.1182699    0.0749068
 27   C6 s0        -0.2411756   -0.1218136    0.1011871    0.3204166   -0.2052999
 28   C6 p0         0.0000000    0.0000000    0.0000000    0.0000000    0.0000000
 29   C6 p+1       -0.0302175    0.0483074    0.0468721    0.0692498    0.0391799
 30   C6 p-1       -0.0543557   -0.0515209    0.0060746   -0.0256853   -0.0573521
 31   H7 s0        -0.0373824   -0.0235190    0.0191135   -0.0869846   -0.0208830
 32   H8 s0        -0.0373824    0.0235190    0.0191135    0.0869846    0.0208830
 33   H9 s0        -0.0385934    0.0285454    0.0129923   -0.0788009    0.0469640
 34   H10 s0       -0.0385934   -0.0285454    0.0129923    0.0788009   -0.0469640
 35   C11 s0        0.0465529   -0.1081229    0.1194863    0.0023086    0.0615622
 36   C11 s0       -0.1180727    0.2789241   -0.3123606   -0.0051864   -0.1622370
 37   C11 p0        0.0000000    0.0000000    0.0000000    0.0000000    0.0000000
 38   C11 p+1       0.0289985   -0.0131925   -0.0579054   -0.0232734   -0.1240463
 39   C11 p-1      -0.0147213    0.0399989   -0.0562396   -0.0246861   -0.0465804
 40   C12 s0        0.0465529    0.1081229    0.1194863   -0.0023086   -0.0615622
 41   C12 s0       -0.1180727   -0.2789241   -0.3123606    0.0051864    0.1622370
 42   C12 p0        0.0000000    0.0000000    0.0000000    0.0000000    0.0000000
 43   C12 p+1      -0.0289985   -0.0131925    0.0579054   -0.0232734   -0.1240463
 44   C12 p-1       0.0147213    0.0399989    0.0562396   -0.0246861   -0.0465804
 45   H13 s0       -0.0203581    0.0542294   -0.0656804    0.0070328   -0.0380165
 46   H14 s0       -0.0203581   -0.0542294   -0.0656804   -0.0070328    0.0380165
 47   C15 s0        0.0227901   -0.0762473    0.1201377    0.0185186    0.1138562
 48   C15 s0       -0.0588094    0.2008923   -0.3225053   -0.0496568   -0.3135570
 49   C15 p0        0.0000000    0.0000000    0.0000000    0.0000000    0.0000000
 50   C15 p+1       0.0204158   -0.0533724    0.0636133    0.0090111    0.0330754
 51   C15 p-1       0.0121261   -0.0374048    0.0536371    0.0009422    0.0425463
 52   C16 s0        0.0227901    0.0762473    0.1201377   -0.0185186   -0.1138562
 53   C16 s0       -0.0588094   -0.2008923   -0.3225053    0.0496568    0.3135570
 54   C16 p0        0.0000000    0.0000000    0.0000000    0.0000000    0.0000000
 55   C16 p+1      -0.0204158   -0.0533724   -0.0636133    0.0090111    0.0330754
 56   C16 p-1      -0.0121261   -0.0374048   -0.0536371    0.0009422    0.0425463
 57   H17 s0       -0.0111862    0.0400304   -0.0669224   -0.0149577   -0.0690556
 58   H18 s0       -0.0111862   -0.0400304   -0.0669224    0.0149577    0.0690556
 59   H19 s0       -0.0080091    0.0338532   -0.0635368   -0.0100012   -0.0743809
 60   H20 s0       -0.0080091   -0.0338532   -0.0635368    0.0100012    0.0743809

            Ene    -1.0207719   -0.9619407   -0.9216381   -0.8992685   -0.8767441
            Sym            Ag           Bu           Ag           Bu           Bu
            Occ             1            1            1            1            1

                           16           17           18           19           20

 1    C1 s0         0.0750340    0.0527929    0.0087803    0.0494113    0.0307354
 2    C1 s0        -0.2240632   -0.1601644   -0.0248324   -0.1508173   -0.1037102
 3    C1 p0         0.0000000    0.0000000    0.0000000    0.0000000    0.0000000
 4    C1 p+1        0.0799502    0.0731931   -0.1613105   -0.1622763    0.1265842
 5    C1 p-1       -0.1324347    0.2043360    0.0624370   -0.0099187   -0.0531145
 6    C2 s0         0.0750340    0.0527929   -0.0087803    0.0494113    0.0307354
 7    C2 s0        -0.2240632   -0.1601644    0.0248324   -0.1508173   -0.1037102
 8    C2 p0         0.0000000    0.0000000    0.0000000    0.0000000    0.0000000
 9    C2 p+1       -0.0799502   -0.0731931   -0.1613105    0.1622763   -0.1265842
 10   C2 p-1        0.1324347   -0.2043360    0.0624370    0.0099187    0.0531145
 11   C3 s0         0.0005827   -0.1130719    0.0500408   -0.0158502    0.0165060
 12   C3 s0        -0.0028725    0.3343555   -0.1535963    0.0545655   -0.0622313
 13   C3 p0         0.0000000    0.0000000    0.0000000    0.0000000    0.0000000
 14   C3 p+1        0.1708138   -0.0370001   -0.0005718    0.0845646    0.1357605
 15   C3 p-1        0.0307101    0.0575306    0.0129468    0.1904618   -0.1321576
 16   C4 s0         0.0005827   -0.1130719   -0.0500408   -0.0158502    0.0165060
 17   C4 s0        -0.0028725    0.3343555    0.1535963    0.0545655   -0.0622313
 18   C4 p0         0.0000000    0.0000000    0.0000000    0.0000000    0.0000000
 19   C4 p+1       -0.1708138    0.0370001   -0.0005718   -0.0845646   -0.1357605
 20   C4 p-1       -0.0307101   -0.0575306    0.0129468   -0.1904618    0.1321576
 21   C5 s0        -0.0866437    0.0570150   -0.0298853   -0.0528822   -0.0153315
 22   C5 s0         0.2490807   -0.1698820    0.0914985    0.1707290    0.0421310
 23   C5 p0         0.0000000    0.0000000    0.0000000    0.0000000    0.0000000
 24   C5 p+1       -0.0321719   -0.1788413    0.0786950    0.0287585   -0.1315175
 25   C5 p-1        0.0574649    0.0886657   -0.0432246    0.2035097   -0.0916819
 26   C6 s0        -0.0866437    0.0570150    0.0298853   -0.0528822   -0.0153315
 27   C6 s0         0.2490807   -0.1698820   -0.0914985    0.1707290    0.0421310
 28   C6 p0         0.0000000    0.0000000    0.0000000    0.0000000    0.0000000
 29   C6 p+1        0.0321719    0.1788413    0.0786950   -0.0287585    0.1315175
 30   C6 p-1       -0.0574649   -0.0886657   -0.0432246   -0.2035097    0.0916819
 31   H7 s0        -0.0157921    0.1442433   -0.0420692    0.1023768   -0.1223713
 32   H8 s0        -0.0157921    0.1442433    0.0420692    0.1023768   -0.1223713
 33   H9 s0         0.0966570   -0.0771478    0.0475576    0.1547964   -0.0883806
 34   H10 s0        0.0966570   -0.0771478   -0.0475576    0.1547964   -0.0883806
 35   C11 s0        0.0491212    0.0052556    0.1000433   -0.0600670   -0.0491038
 36   C11 s0       -0.1481870   -0.0174670   -0.3092592    0.1855686    0.1580356
 37   C11 p0        0.0000000    0.0000000    0.0000000    0.0000000    0.0000000
 38   C11 p+1       0.1368884    0.0811527    0.0617811   -0.0170278    0.1822207
 39   C11 p-1       0.0758754   -0.0424433    0.1097751   -0.0610178   -0.1081566
 40   C12 s0        0.0491212    0.0052556   -0.1000433   -0.0600670   -0.0491038
 41   C12 s0       -0.1481870   -0.0174670    0.3092592    0.1855686    0.1580356
 42   C12 p0        0.0000000    0.0000000    0.0000000    0.0000000    0.0000000
 43   C12 p+1      -0.1368884   -0.0811527    0.0617811    0.0170278   -0.1822207
 44   C12 p-1      -0.0758754    0.0424433    0.1097751    0.0610178    0.1081566
 45   H13 s0       -0.0656782    0.0280633   -0.1528289    0.0999192    0.1458771
 46   H14 s0       -0.0656782    0.0280633    0.1528289    0.0999192    0.1458771
 47   C15 s0       -0.0813229   -0.0402378   -0.0849729    0.0549863    0.0245784
 48   C15 s0        0.2389580    0.1225264    0.2683685   -0.1774748   -0.0912089
 49   C15 p0        0.0000000    0.0000000    0.0000000    0.0000000    0.0000000
 50   C15 p+1       0.0264455    0.0416182    0.0878564   -0.0776832   -0.0133060
 51   C15 p-1       0.0250684   -0.0169316    0.1174159   -0.0741915   -0.2282636
 52   C16 s0       -0.0813229   -0.0402378    0.0849729    0.0549863    0.0245784
 53   C16 s0        0.2389580    0.1225264   -0.2683685   -0.1774748   -0.0912089
 54   C16 p0        0.0000000    0.0000000    0.0000000    0.0000000    0.0000000
 55   C16 p+1      -0.0264455   -0.0416182    0.0878564    0.0776832    0.0133060
 56   C16 p-1      -0.0250684    0.0169316    0.1174159    0.0741915    0.2282636
 57   H17 s0        0.0861275    0.0222260    0.1472491   -0.0878047   -0.1779372
 58   H18 s0        0.0861275    0.0222260   -0.1472491   -0.0878047   -0.1779372
 59   H19 s0        0.0795865    0.0573839    0.1145008   -0.0879664   -0.0037299
 60   H20 s0        0.0795865    0.0573839   -0.1145008   -0.0879664   -0.0037299

            Ene    -0.7871270   -0.7598788   -0.7225126   -0.7036033   -0.6504811
            Sym            Ag           Ag           Bu           Ag           Ag
            Occ             1            1            1            1            1

                           21           22           23           24           25

 1    C1 s0         0.0160639    0.0501737    0.0494100    0.0176162    0.0036409
 2    C1 s0        -0.0565677   -0.1752222   -0.1731763   -0.0601280   -0.0130317
 3    C1 p0         0.0000000    0.0000000    0.0000000    0.0000000    0.0000000
 4    C1 p+1        0.1475595    0.0721879   -0.1549275    0.0021266   -0.1035431
 5    C1 p-1        0.1739053   -0.1814624    0.1444786   -0.0108372   -0.1020944
 6    C2 s0        -0.0160639   -0.0501737   -0.0494100    0.0176162   -0.0036409
 7    C2 s0         0.0565677    0.1752222    0.1731763   -0.0601280    0.0130317
 8    C2 p0         0.0000000    0.0000000    0.0000000    0.0000000    0.0000000
 9    C2 p+1        0.1475595    0.0721879   -0.1549275   -0.0021266   -0.1035431
 10   C2 p-1        0.1739053   -0.1814624    0.1444786    0.0108372   -0.1020944
 11   C3 s0        -0.0159249   -0.0485139   -0.0267263   -0.0245612    0.0212987
 12   C3 s0         0.0544166    0.1665780    0.0959922    0.0830820   -0.0657092
 13   C3 p0         0.0000000    0.0000000    0.0000000    0.0000000    0.0000000
 14   C3 p+1       -0.2150196    0.0894174   -0.0799500    0.0706645   -0.1197386
 15   C3 p-1       -0.0238853    0.1835457    0.1149116   -0.0069402    0.3345129
 16   C4 s0         0.0159249    0.0485139    0.0267263   -0.0245612   -0.0212987
 17   C4 s0        -0.0544166   -0.1665780   -0.0959922    0.0830820    0.0657092
 18   C4 p0         0.0000000    0.0000000    0.0000000    0.0000000    0.0000000
 19   C4 p+1       -0.2150196    0.0894174   -0.0799500   -0.0706645   -0.1197386

 Dipole X            :          0.0000000            0.0000000            0.0000000
 Dipole Y            :          0.0000000           -0.0000000           -0.0000000
 Dipole Z            :          0.0000000            0.0000000            0.0000000

  Lowdin Charges: (a.u.)
   Center  Symbol    Alpha    Beta     Spin     Total
       1     C     3.06167  2.85841  0.20326  0.07991
       2     C     3.06167  2.85841  0.20326  0.07991
       3     C     3.01090  2.98973  0.02117 -0.00063
       4     C     3.01090  2.98973  0.02117 -0.00063
       5     C     3.01581  2.98613  0.02967 -0.00194
       6     C     3.01581  2.98613  0.02967 -0.00194
       7     H     0.45946  0.46036 -0.00090  0.08018
       8     H     0.45946  0.46036 -0.00090  0.08018
       9     H     0.46075  0.46191 -0.00116  0.07733
      10     H     0.46075  0.46191 -0.00116  0.07733
      11     C     2.97678  3.02149 -0.04471  0.00172
      12     C     2.97678  3.02149 -0.04471  0.00172
      13     H     0.46205  0.46048  0.00157  0.07747
      14     H     0.46205  0.46048  0.00157  0.07747
      15     C     3.14897  2.83659  0.31237  0.01444
      16     C     3.14897  2.83659  0.31237  0.01444
      17     H     0.45533  0.46579 -0.01045  0.07888
      18     H     0.45533  0.46579 -0.01045  0.07888
      19     H     0.44828  0.45909 -0.01081  0.09264
      20     H     0.44828  0.45909 -0.01081  0.09264

  Total alpha = 35.00000, Total beta = 34.00000, Total charge =  1.00000

*** Psi4 exiting successfully. Buy a developer a beer!
