 Gaussian 16, Revision A.03,
 Gaussian 16:  ES64L-G16RevA.03 25-Dec-2016

 ----------------------------------------------------
 #p ub3lyp/sto-3g pop=(full,NOAB) iop(3/33=1,3/36=-1)
 ----------------------------------------------------

 -------
 Notitle
 -------
 Symbolic Z-matrix:
 Charge =  1 Multiplicity = 2

                         Standard orientation:
 ---------------------------------------------------------------------
 Center     Atomic      Atomic             Coordinates (Angstroms)
 Number     Number       Type             X           Y           Z
 ---------------------------------------------------------------------
      1          6           0        0.269481   -1.410087   -0.000000
      2          6           0       -1.064752   -0.920700    0.000000
      3          6           0       -1.325434    0.457029    0.000000
      4          6           0       -0.269481    1.410087    0.000000
      5          6           0        1.064752    0.920700    0.000000
      6          1           0       -1.904434   -1.627596    0.000000
      7          1           0       -2.364772    0.813167    0.000000
      8          1           0        1.904434    1.627596    0.000000
      9          6           0       -0.603732    2.869917    0.000000
     10          6           0        0.269481    3.891952    0.000000
     11          1           0        1.355166    3.742014    0.000000
     12          1           0       -1.681904    3.090005    0.000000
     13          1           0       -0.074029    4.932969    0.000000
     14          6           0        0.603732   -2.869917   -0.000000
     15          1           0        1.681904   -3.090005   -0.000000
     16          6           0       -0.269481   -3.891952   -0.000000
     17          1           0       -1.355166   -3.742014   -0.000000
     18          1           0        0.074029   -4.932969   -0.000000
     19          6           0        1.325434   -0.457029    0.000000
     20          1           0        2.364772   -0.813167    0.000000
 ---------------------------------------------------------------------

 SCF Done:  E(UB3LYP) =  -382.081392408     A.U. after   19 cycles

 Mulliken charges and spin densities:
               1          2
     1  C    0.055742   0.213022
     2  C   -0.040812   0.025410
     3  C   -0.038510   0.019734
     4  C    0.055742   0.213022
     5  C   -0.040812   0.025410
     6  H    0.123201  -0.001508
     7  H    0.127046  -0.001291
     8  H    0.123201  -0.001508
     9  C   -0.040164  -0.056126
    10  C   -0.076792   0.327896
    11  H    0.123966  -0.014409
    12  H    0.124621   0.002075
    13  H    0.141703  -0.014803
    14  C   -0.040164  -0.056126
    15  H    0.124621   0.002075
    16  C   -0.076792   0.327896
    17  H    0.123966  -0.014409
    18  H    0.141703  -0.014803
    19  C   -0.038510   0.019734
    20  H    0.127046  -0.001291
 Sum of Mulliken charges =   1.00000   1.00000

 Normal termination of Gaussian 16 at Fri Nov 30 14:54:08 2018.
