 Gaussian 16, Revision A.03,
 Gaussian 16:  ES64L-G16RevA.03 25-Dec-2016

 ---------------------------------------------------------
 #p b3lyp/sto-3g pop=(full,NO) gfinput iop(3/33=1,3/36=-1)
 ---------------------------------------------------------

 -------
 Notitle
 -------
 Symbolic Z-matrix:
 Charge =  0 Multiplicity = 1

                         Standard orientation:
 ---------------------------------------------------------------------
 Center     Atomic      Atomic             Coordinates (Angstroms)
 Number     Number       Type             X           Y           Z
 ---------------------------------------------------------------------
      1          6           0        0.269481   -1.410087   -0.000000
      2          6           0       -1.064752   -0.920700    0.000000
      3          6           0       -1.325434    0.457029    0.000000
      4          6           0       -0.269481    1.410087    0.000000
      5          6           0        1.064752    0.920700    0.000000
      6          1           0       -1.904434   -1.627596    0.000000
      7          1           0       -2.364772    0.813167    0.000000
      8          1           0        1.904434    1.627596    0.000000
      9          6           0       -0.603732    2.869917    0.000000
     10          6           0        0.269481    3.891952    0.000000
     11          1           0        1.355166    3.742014    0.000000
     12          1           0       -1.681904    3.090005    0.000000
     13          1           0       -0.074029    4.932969    0.000000
     14          6           0        0.603732   -2.869917   -0.000000
     15          1           0        1.681904   -3.090005   -0.000000
     16          6           0       -0.269481   -3.891952   -0.000000
     17          1           0       -1.355166   -3.742014   -0.000000
     18          1           0        0.074029   -4.932969   -0.000000
     19          6           0        1.325434   -0.457029    0.000000
     20          1           0        2.364772   -0.813167    0.000000
 ---------------------------------------------------------------------

 SCF Done:  E(RB3LYP) =  -382.308266561     A.U. after   12 cycles

 Mulliken charges:
               1
     1  C   -0.004506
     2  C   -0.077162
     3  C   -0.076608
     4  C   -0.004506
     5  C   -0.077162
     6  H    0.079219
     7  H    0.077691
     8  H    0.079219
     9  C   -0.076381
    10  C   -0.154817
    11  H    0.076331
    12  H    0.076887
    13  H    0.079346
    14  C   -0.076381
    15  H    0.076887
    16  C   -0.154817
    17  H    0.076331
    18  H    0.079346
    19  C   -0.076608
    20  H    0.077691
 Sum of Mulliken charges =  -0.00000

 Normal termination of Gaussian 16 at Fri Nov 30 13:26:08 2018.
