         Total DFT energy =     -382.308236375541
@ Step       Energy      Delta E   Gmax     Grms     Xrms     Xmax   Walltime
@ ---- ---------------- -------- -------- -------- -------- -------- --------
@    0    -382.30823638  0.0D+00  0.00075  0.00023  0.00000  0.00000     13.8
         Total DFT energy =     -382.308259552979
         Total DFT energy =     -382.308259882085
@    1    -382.30825988 -2.4D-05  0.00032  0.00009  0.00504  0.01705     28.2
         Total DFT energy =     -382.308261494356

 Vector   14  Occ=2.000000D+00  E=-6.998010D-01  Symmetry=bu

 Vector   15  Occ=2.000000D+00  E=-6.675211D-01  Symmetry=bu

 Vector   16  Occ=2.000000D+00  E=-5.887188D-01  Symmetry=ag

 Vector   17  Occ=2.000000D+00  E=-5.589335D-01  Symmetry=ag

 Vector   18  Occ=2.000000D+00  E=-5.316553D-01  Symmetry=bu

 Vector   19  Occ=2.000000D+00  E=-5.101696D-01  Symmetry=ag

 Vector   20  Occ=2.000000D+00  E=-4.574409D-01  Symmetry=ag

 Vector   21  Occ=2.000000D+00  E=-4.393672D-01  Symmetry=bu

 Vector   22  Occ=2.000000D+00  E=-4.106226D-01  Symmetry=bu

 Vector   23  Occ=2.000000D+00  E=-3.979556D-01  Symmetry=bu

 Vector   24  Occ=2.000000D+00  E=-3.960778D-01  Symmetry=ag

 Vector   25  Occ=2.000000D+00  E=-3.739880D-01  Symmetry=bu

 Vector   26  Occ=2.000000D+00  E=-3.511538D-01  Symmetry=bu

 Vector   27  Occ=2.000000D+00  E=-3.472878D-01  Symmetry=ag

 Vector   28  Occ=2.000000D+00  E=-3.245219D-01  Symmetry=au

 Vector   29  Occ=2.000000D+00  E=-3.112381D-01  Symmetry=bu

 Vector   30  Occ=2.000000D+00  E=-2.928104D-01  Symmetry=ag

 Vector   31  Occ=2.000000D+00  E=-2.874464D-01  Symmetry=ag

 Vector   32  Occ=2.000000D+00  E=-2.635685D-01  Symmetry=bg

 Vector   33  Occ=2.000000D+00  E=-2.124635D-01  Symmetry=au

 Vector   34  Occ=2.000000D+00  E=-1.950745D-01  Symmetry=bg

 Vector   35  Occ=2.000000D+00  E=-1.530784D-01  Symmetry=bg

 Vector   36  Occ=0.000000D+00  E= 3.739613D-02  Symmetry=au

 Vector   37  Occ=0.000000D+00  E= 9.037868D-02  Symmetry=au

 Vector   38  Occ=0.000000D+00  E= 1.106293D-01  Symmetry=bg

 Vector   39  Occ=0.000000D+00  E= 1.822345D-01  Symmetry=au

 Vector   40  Occ=0.000000D+00  E= 2.725393D-01  Symmetry=bg

 Vector   41  Occ=0.000000D+00  E= 3.322358D-01  Symmetry=ag

 Vector   42  Occ=0.000000D+00  E= 3.407101D-01  Symmetry=bu

 Vector   43  Occ=0.000000D+00  E= 3.794417D-01  Symmetry=bu

 Vector   44  Occ=0.000000D+00  E= 3.814719D-01  Symmetry=ag

 Vector   45  Occ=0.000000D+00  E= 4.109939D-01  Symmetry=ag

 Vector   46  Occ=0.000000D+00  E= 4.119806D-01  Symmetry=bu

 Vector   47  Occ=0.000000D+00  E= 4.267671D-01  Symmetry=bu

 Vector   48  Occ=0.000000D+00  E= 4.396580D-01  Symmetry=ag

 Vector   49  Occ=0.000000D+00  E= 4.527008D-01  Symmetry=bu

 Vector   50  Occ=0.000000D+00  E= 4.782348D-01  Symmetry=ag

 Vector   51  Occ=0.000000D+00  E= 5.262532D-01  Symmetry=ag

         Total DFT energy =   -382.308261494356
@    2    -382.30826149 -1.6D-06  0.00009  0.00002  0.00091  0.00252     37.4
         Total DFT energy =     -382.308261638995

                       DFT Final Molecular Orbital Analysis
                       ------------------------------------

 Vector   10  Occ=2.000000D+00  E=-9.992323D+00  Symmetry=ag

 Vector   11  Occ=2.000000D+00  E=-8.095072D-01  Symmetry=ag

 Vector   12  Occ=2.000000D+00  E=-7.539867D-01  Symmetry=bu

 Vector   13  Occ=2.000000D+00  E=-7.179638D-01  Symmetry=ag

 Vector   14  Occ=2.000000D+00  E=-6.997874D-01  Symmetry=bu

 Vector   15  Occ=2.000000D+00  E=-6.675087D-01  Symmetry=bu

 Vector   16  Occ=2.000000D+00  E=-5.887093D-01  Symmetry=ag

 Vector   17  Occ=2.000000D+00  E=-5.589271D-01  Symmetry=ag

 Vector   18  Occ=2.000000D+00  E=-5.316619D-01  Symmetry=bu

 Vector   19  Occ=2.000000D+00  E=-5.101745D-01  Symmetry=ag

 Vector   20  Occ=2.000000D+00  E=-4.574374D-01  Symmetry=ag

 Vector   21  Occ=2.000000D+00  E=-4.393604D-01  Symmetry=bu

 Vector   22  Occ=2.000000D+00  E=-4.106189D-01  Symmetry=bu

 Vector   23  Occ=2.000000D+00  E=-3.979529D-01  Symmetry=bu

 Vector   24  Occ=2.000000D+00  E=-3.960672D-01  Symmetry=ag

 Vector   25  Occ=2.000000D+00  E=-3.739786D-01  Symmetry=bu

 Vector   26  Occ=2.000000D+00  E=-3.511460D-01  Symmetry=bu

 Vector   27  Occ=2.000000D+00  E=-3.472890D-01  Symmetry=ag

 Vector   28  Occ=2.000000D+00  E=-3.245069D-01  Symmetry=au

 Vector   29  Occ=2.000000D+00  E=-3.112491D-01  Symmetry=bu

 Vector   30  Occ=2.000000D+00  E=-2.928024D-01  Symmetry=ag

 Vector   31  Occ=2.000000D+00  E=-2.874568D-01  Symmetry=ag

 Vector   32  Occ=2.000000D+00  E=-2.635519D-01  Symmetry=bg

 Vector   33  Occ=2.000000D+00  E=-2.124445D-01  Symmetry=au

 Vector   34  Occ=2.000000D+00  E=-1.950576D-01  Symmetry=bg

 Vector   35  Occ=2.000000D+00  E=-1.530759D-01  Symmetry=bg

 Vector   36  Occ=0.000000D+00  E= 3.739911D-02  Symmetry=au

 Vector   37  Occ=0.000000D+00  E= 9.036319D-02  Symmetry=au

 Vector   38  Occ=0.000000D+00  E= 1.106078D-01  Symmetry=bg

 Vector   39  Occ=0.000000D+00  E= 1.822085D-01  Symmetry=au

 Vector   40  Occ=0.000000D+00  E= 2.725169D-01  Symmetry=bg

 Vector   41  Occ=0.000000D+00  E= 3.322393D-01  Symmetry=ag

 Vector   42  Occ=0.000000D+00  E= 3.407333D-01  Symmetry=bu

 Vector   43  Occ=0.000000D+00  E= 3.794061D-01  Symmetry=bu

 Vector   44  Occ=0.000000D+00  E= 3.814746D-01  Symmetry=ag

 Vector   45  Occ=0.000000D+00  E= 4.109923D-01  Symmetry=ag

 Vector   46  Occ=0.000000D+00  E= 4.119797D-01  Symmetry=bu

 Vector   47  Occ=0.000000D+00  E= 4.267636D-01  Symmetry=bu

 Vector   48  Occ=0.000000D+00  E= 4.396265D-01  Symmetry=ag

 Vector   49  Occ=0.000000D+00  E= 4.527204D-01  Symmetry=bu

 Vector   50  Occ=0.000000D+00  E= 4.782366D-01  Symmetry=ag

 Vector   51  Occ=0.000000D+00  E= 5.262401D-01  Symmetry=ag

     Multipole analysis of the density
     ---------------------------------

     L   x y z        total         alpha         beta         nuclear
     -   - - -        -----         -----         ----         -------
     0   0 0 0     -0.000000    -35.000000    -35.000000     70.000000

     1   1 0 0      0.000000      0.000000      0.000000      0.000000
     1   0 1 0     -0.000000     -0.000000     -0.000000      0.000000
     1   0 0 1      0.000000      0.000000      0.000000      0.000000

     2   2 0 0    -37.340503   -140.892775   -140.892775    244.445047
     2   1 1 0      0.052054      2.889246      2.889246     -5.726437
     2   1 0 1     -0.000000     -0.000000     -0.000000      0.000000
     2   0 2 0    -37.703481   -768.223488   -768.223488   1498.743494
     2   0 1 1     -0.000000     -0.000000     -0.000000      0.000000

         Total DFT energy =   -382.308261638995
@    3    -382.30826164 -1.4D-07  0.00002  0.00000  0.00019  0.00053     45.7
@    3    -382.30826164 -1.4D-07  0.00002  0.00000  0.00019  0.00053     45.7

 Output coordinates in angstroms (scale by  1.889725989 to convert to a.u.)

  No.       Tag          Charge          X              Y              Z
 ---- ---------------- ---------- -------------- -------------- --------------
    1 C                    6.0000     0.23508256     1.41623076     0.00000000
    2 C                    6.0000    -0.23508256    -1.41623076     0.00000000
    3 C                    6.0000     1.31391859     0.48912607     0.00000000
    4 C                    6.0000    -1.31391859    -0.48912607     0.00000000
    5 C                    6.0000     1.08691202    -0.89453863     0.00000000
    6 C                    6.0000    -1.08691202     0.89453863     0.00000000
    7 H                    1.0000     2.34428991     0.87038541     0.00000000
    8 H                    1.0000    -2.34428991    -0.87038541     0.00000000
    9 H                    1.0000     1.94344840    -1.58087599     0.00000000
   10 H                    1.0000    -1.94344840     1.58087599     0.00000000
   11 C                    6.0000    -0.53389084    -2.88364220     0.00000000
   12 C                    6.0000     0.53389084     2.88364220     0.00000000
   13 H                    1.0000    -1.60646161    -3.12967284     0.00000000
   14 H                    1.0000     1.60646161     3.12967284     0.00000000
   15 C                    6.0000     0.36353624    -3.88450834     0.00000000
   16 C                    6.0000    -0.36353624     3.88450834     0.00000000
   17 H                    1.0000     1.44535551    -3.70889986     0.00000000
   18 H                    1.0000    -1.44535551     3.70889986     0.00000000
   19 H                    1.0000     0.04482546    -4.93338203     0.00000000
   20 H                    1.0000    -0.04482546     4.93338203     0.00000000

 Total times  cpu:       44.6s     wall:       45.7s
