 Output coordinates in angstroms (scale by  1.889725989 to convert to a.u.)

  No.       Tag          Charge          X              Y              Z
 ---- ---------------- ---------- -------------- -------------- --------------
    1 C                    6.0000     0.23680554     1.41416660     0.00000000
    2 C                    6.0000    -0.23680554    -1.41416660     0.00000000
    3 C                    6.0000     1.31675086     0.48901061     0.00000000
    4 C                    6.0000    -1.31675086    -0.48901061     0.00000000
    5 C                    6.0000     1.08679847    -0.89447642     0.00000000
    6 C                    6.0000    -1.08679847     0.89447642     0.00000000
    7 H                    1.0000     2.34780221     0.86863451     0.00000000
    8 H                    1.0000    -2.34780221    -0.86863451     0.00000000
    9 H                    1.0000     1.93764188    -1.58693865     0.00000000
   10 H                    1.0000    -1.93764188     1.58693865     0.00000000
   11 C                    6.0000    -0.53450789    -2.88212824     0.00000000
   12 C                    6.0000     0.53450789     2.88212824     0.00000000
   13 H                    1.0000    -1.60655769    -3.13289308     0.00000000
   14 H                    1.0000     1.60655769     3.13289308     0.00000000
   15 C                    6.0000     0.36419263    -3.88177971     0.00000000
   16 C                    6.0000    -0.36419263     3.88177971     0.00000000
   17 H                    1.0000     1.44522900    -3.70144241     0.00000000
   18 H                    1.0000    -1.44522900     3.70144241     0.00000000
   19 H                    1.0000     0.04815351    -4.93192286     0.00000000
   20 H                    1.0000    -0.04815351     4.93192286     0.00000000

         Total DFT energy =     -382.081439085383

                    DFT Final Alpha Molecular Orbital Analysis
                    ------------------------------------------

 Vector    1  Occ=1.000000D+00  E=-1.025361D+01  Symmetry=bu

 Vector   41  Occ=0.000000D+00  E= 1.397099D-01  Symmetry=ag

 Vector   42  Occ=0.000000D+00  E= 1.490023D-01  Symmetry=bu

 Vector   43  Occ=0.000000D+00  E= 1.792476D-01  Symmetry=bu

 Vector   44  Occ=0.000000D+00  E= 1.964608D-01  Symmetry=ag

 Vector   45  Occ=0.000000D+00  E= 2.146787D-01  Symmetry=ag

 Vector   46  Occ=0.000000D+00  E= 2.203562D-01  Symmetry=bu

 Vector   47  Occ=0.000000D+00  E= 2.396755D-01  Symmetry=ag

 Vector   48  Occ=0.000000D+00  E= 2.405837D-01  Symmetry=bu

 Vector   49  Occ=0.000000D+00  E= 2.630196D-01  Symmetry=bu

 Vector   50  Occ=0.000000D+00  E= 2.853144D-01  Symmetry=ag

 Vector   51  Occ=0.000000D+00  E= 3.197837D-01  Symmetry=ag

 Vector   52  Occ=0.000000D+00  E= 3.442763D-01  Symmetry=bu

 Vector   53  Occ=0.000000D+00  E= 3.799992D-01  Symmetry=ag

 Vector   54  Occ=0.000000D+00  E= 3.978243D-01  Symmetry=bu

 Vector   55  Occ=0.000000D+00  E= 4.254744D-01  Symmetry=bu

 Vector   56  Occ=0.000000D+00  E= 4.381738D-01  Symmetry=ag

 Vector   57  Occ=0.000000D+00  E= 4.777545D-01  Symmetry=ag

 Vector   58  Occ=0.000000D+00  E= 5.060469D-01  Symmetry=bu

 Vector   59  Occ=0.000000D+00  E= 5.676006D-01  Symmetry=ag

 Vector   60  Occ=0.000000D+00  E= 5.817430D-01  Symmetry=bu

 Vector    1  Occ=1.000000D+00  E=-1.025063D+01  Symmetry=bu

 Vector    2  Occ=1.000000D+00  E=-1.025059D+01  Symmetry=ag

 Vector    3  Occ=1.000000D+00  E=-1.021921D+01  Symmetry=bu

 Vector    4  Occ=1.000000D+00  E=-1.021918D+01  Symmetry=ag

 Vector    5  Occ=1.000000D+00  E=-1.021842D+01  Symmetry=ag

 Vector    6  Occ=1.000000D+00  E=-1.021842D+01  Symmetry=bu

 Vector    7  Occ=1.000000D+00  E=-1.021787D+01  Symmetry=bu

 Vector    8  Occ=1.000000D+00  E=-1.021776D+01  Symmetry=ag

 Vector    9  Occ=1.000000D+00  E=-1.021079D+01  Symmetry=ag

 Vector   10  Occ=1.000000D+00  E=-1.021079D+01  Symmetry=bu

 Vector   11  Occ=1.000000D+00  E=-1.014703D+00  Symmetry=ag

 Vector   12  Occ=1.000000D+00  E=-9.544768D-01  Symmetry=bu

 Vector   13  Occ=1.000000D+00  E=-9.137368D-01  Symmetry=ag

 Vector   14  Occ=1.000000D+00  E=-8.975980D-01  Symmetry=bu

 Vector   15  Occ=1.000000D+00  E=-8.645205D-01  Symmetry=bu

 Vector   16  Occ=1.000000D+00  E=-7.818199D-01  Symmetry=ag

 Vector   17  Occ=1.000000D+00  E=-7.558015D-01  Symmetry=ag

 Vector   18  Occ=1.000000D+00  E=-7.185950D-01  Symmetry=bu

 Vector   19  Occ=1.000000D+00  E=-7.004630D-01  Symmetry=ag

 Vector   20  Occ=1.000000D+00  E=-6.482753D-01  Symmetry=ag

 Vector   21  Occ=1.000000D+00  E=-6.329027D-01  Symmetry=bu

 Vector   22  Occ=1.000000D+00  E=-6.012783D-01  Symmetry=bu

 Vector   23  Occ=1.000000D+00  E=-5.932525D-01  Symmetry=bu

 Vector   24  Occ=1.000000D+00  E=-5.849151D-01  Symmetry=ag

 Vector   25  Occ=1.000000D+00  E=-5.681443D-01  Symmetry=bu

 Vector   26  Occ=1.000000D+00  E=-5.492899D-01  Symmetry=bu

 Vector   27  Occ=1.000000D+00  E=-5.351471D-01  Symmetry=ag

 Vector   28  Occ=1.000000D+00  E=-5.173613D-01  Symmetry=au

 Vector   29  Occ=1.000000D+00  E=-4.994314D-01  Symmetry=bu

 Vector   30  Occ=1.000000D+00  E=-4.917913D-01  Symmetry=ag

 Vector   31  Occ=1.000000D+00  E=-4.811395D-01  Symmetry=ag

 Vector   32  Occ=1.000000D+00  E=-4.507912D-01  Symmetry=bg

 Vector   33  Occ=1.000000D+00  E=-3.911642D-01  Symmetry=bg

 Vector   34  Occ=1.000000D+00  E=-3.887357D-01  Symmetry=au

 Vector   35  Occ=0.000000D+00  E=-3.004744D-01  Symmetry=bg

 Vector   36  Occ=0.000000D+00  E=-1.470199D-01  Symmetry=au

 Vector   37  Occ=0.000000D+00  E=-1.034329D-01  Symmetry=au

 Vector   38  Occ=0.000000D+00  E=-7.365158D-02  Symmetry=bg

 Vector   39  Occ=0.000000D+00  E=-8.258909D-03  Symmetry=au

 Vector   40  Occ=0.000000D+00  E= 7.613959D-02  Symmetry=bg

 Vector   41  Occ=0.000000D+00  E= 1.421637D-01  Symmetry=ag

 Vector   42  Occ=0.000000D+00  E= 1.508779D-01  Symmetry=bu

 Vector   43  Occ=0.000000D+00  E= 1.811483D-01  Symmetry=bu

 Vector   44  Occ=0.000000D+00  E= 1.979376D-01  Symmetry=ag

 Vector   45  Occ=0.000000D+00  E= 2.203482D-01  Symmetry=ag

 Vector   46  Occ=0.000000D+00  E= 2.257444D-01  Symmetry=bu

 Vector   47  Occ=0.000000D+00  E= 2.420323D-01  Symmetry=bu

 Vector   48  Occ=0.000000D+00  E= 2.463283D-01  Symmetry=ag

 Vector   49  Occ=0.000000D+00  E= 2.700332D-01  Symmetry=bu

 Vector   50  Occ=0.000000D+00  E= 2.904632D-01  Symmetry=ag

 Vector   51  Occ=0.000000D+00  E= 3.235122D-01  Symmetry=ag

 Vector   52  Occ=0.000000D+00  E= 3.477290D-01  Symmetry=bu

 Vector   53  Occ=0.000000D+00  E= 3.814956D-01  Symmetry=ag

 Vector   54  Occ=0.000000D+00  E= 4.000049D-01  Symmetry=bu

 Vector   55  Occ=0.000000D+00  E= 4.297954D-01  Symmetry=bu

 Vector   56  Occ=0.000000D+00  E= 4.407401D-01  Symmetry=ag

 Vector   57  Occ=0.000000D+00  E= 4.815334D-01  Symmetry=ag

 Vector   58  Occ=0.000000D+00  E= 5.114627D-01  Symmetry=bu

 Vector   59  Occ=0.000000D+00  E= 5.713402D-01  Symmetry=ag

 Vector   60  Occ=0.000000D+00  E= 5.848843D-01  Symmetry=bu

     Multipole analysis of the density
     ---------------------------------

     L   x y z        total         alpha         beta         nuclear
     -   - - -        -----         -----         ----         -------
     0   0 0 0      1.000000    -35.000000    -34.000000     70.000000

     1   1 0 0     -0.000000     -0.000000     -0.000000      0.000000
     1   0 1 0     -0.000000     -0.000000     -0.000000      0.000000
     1   0 0 1      0.000000      0.000000      0.000000      0.000000

     2   2 0 0    -32.088349   -138.903398   -137.980823    244.795872
     2   1 1 0     -0.672408      3.818368      1.140251     -5.631027
     2   1 0 1      0.000000      0.000000      0.000000      0.000000
     2   0 2 0     -6.464165   -767.762072   -735.665394   1496.963300
     2   0 1 1      0.000000      0.000000      0.000000      0.000000

 Total times  cpu:       92.8s     wall:       94.5s
