 Q-Chem 5.1, Q-Chem, Inc., Pleasanton, CA (2018)
 Q-Chem 5.1.2 for Intel X86 EM64T Linux

User input:
--------------------------------------------------------------
$comment
 Divinylbenzene, Born-Oppenheimer molecular dynamics, RB3LYP/STO-3G
$end

$rem
 jobtype = aimd
 method = b3lyp
 basis = sto-3g
 aimd_init_veloc = thermal
 aimd_temp = 298
 time_step = 25
 aimd_steps = 35
$end

$molecule
 0 1
 C                  0.27867948   -1.36683162    0.00000000
 C                  1.32303041   -0.44173575    0.00000000
 C                  1.04434506    0.92484978    0.00000000
 C                 -0.27867948    1.36683162    0.00000000
 C                 -1.32303041    0.44173575    0.00000000
 C                 -1.04434506   -0.92484978    0.00000000
 H                  2.36595443   -0.79037726    0.00000000
 H                  1.86746094    1.65407997    0.00000000
 H                 -2.36595443    0.79037726    0.00000000
 H                 -1.86746094   -1.65407997    0.00000000
 C                 -0.58659169    2.87589931    0.00000000
 C                  0.36350188    3.80076420    0.00000000
 H                 -1.65647768    3.12394312    0.00000000
 H                  0.14429560    4.87693235    0.00000000
 H                  1.43338788    3.55272039    0.00000000
 C                  0.58659169   -2.87589931    0.00000000
 C                 -0.36350188   -3.80076420    0.00000000
 H                  1.65647768   -3.12394312    0.00000000
 H                 -0.14429560   -4.87693235    0.00000000
 H                 -1.43338788   -3.55272039    0.00000000
$end
--------------------------------------------------------------

   11    -382.3003619984      8.88e-09  Convergence criterion met
 Total energy in the final basis set =     -382.3003619984

                    Orbital Energies (a.u.)
 --------------------------------------------------------------

 Alpha MOs
 -- Occupied --
-10.018 -10.018 -10.008 -10.008 -10.007 -10.007 -10.006 -10.005
 -9.992  -9.992  -0.818  -0.755  -0.721  -0.704  -0.670  -0.585
 -0.561  -0.532  -0.512  -0.462  -0.439  -0.410  -0.400  -0.397
 -0.376  -0.358  -0.349  -0.330  -0.305  -0.295  -0.281  -0.263
 -0.216  -0.198  -0.160

          Ground-State Mulliken Net Atomic Charges

     Atom                 Charge (a.u.)
  ----------------------------------------
      1 C                    -0.004104
      2 C                    -0.079244
      3 C                    -0.077213
      4 C                    -0.004104
      5 C                    -0.079244
      6 C                    -0.077213
      7 H                     0.078761
      8 H                     0.079722
      9 H                     0.078761
     10 H                     0.079722
     11 C                    -0.075269
     12 C                    -0.156380
     13 H                     0.078811
     14 H                     0.078363
     15 H                     0.076553
     16 C                    -0.075269
     17 C                    -0.156380
     18 H                     0.078811
     19 H                     0.078363
     20 H                     0.076553
  ----------------------------------------
  Sum of atomic charges =    -0.000000

                    Cartesian Multipole Moments
 -----------------------------------------------------------------
    Charge (ESU x 10^10)
                 0.0000
    Dipole Moment (Debye)
         X      -0.0000      Y       0.0000      Z       0.0000
       Tot       0.0000
    Quadrupole Moments (Debye-Ang)
        XX     -50.1432     XY       0.1106     YY     -50.9644
        XZ       0.0000     YZ       0.0000     ZZ     -58.5742

   13    -382.2991070645      5.05E-09 Convergence criterion met
 Total energy in the final basis set = -382.29910706
   13    -382.2964998792      6.05E-09 Convergence criterion met
 Total energy in the final basis set = -382.29649988
   13    -382.2938095116      6.55E-09 Convergence criterion met
 Total energy in the final basis set = -382.29380951
   13    -382.2923483258      4.52E-09 Convergence criterion met
 Total energy in the final basis set = -382.29234833
   13    -382.2926399041      7.00E-09 Convergence criterion met
 Total energy in the final basis set = -382.29263990
   13    -382.2940755802      7.49E-09 Convergence criterion met
 Total energy in the final basis set = -382.29407558
   13    -382.2953563602      8.01E-09 Convergence criterion met
 Total energy in the final basis set = -382.29014505
   14    -382.2912560908      2.25E-09 Convergence criterion met
 Total energy in the final basis set = -382.29125609
   14    -382.2931775430      2.15E-09 Convergence criterion met
 Total energy in the final basis set = -382.29317754
   13    -382.2947434521      9.46E-09 Convergence criterion met
 Total energy in the final basis set = -382.29474345
   13    -382.2950653476      8.04E-09 Convergence criterion met
 Total energy in the final basis set = -382.29506535
   13    -382.2940216169      6.75E-09 Convergence criterion met
 Total energy in the final basis set = -382.29402162
   13    -382.2923378514      6.36E-09 Convergence criterion met
 Total energy in the final basis set = -382.29233785

             Standard Nuclear Orientation (Angstroms)
    I     Atom           X                Y                Z
 ----------------------------------------------------------------
    1      C       0.2244981574    -1.4268390238    -0.0522673856
    2      C       1.3098326615    -0.5517432278     0.0215135862
    3      C       1.1097477825     0.8712478536    -0.0102922553
    4      C      -0.1865444238     1.4113117263    -0.0149571322
    5      C      -1.2803418055     0.5076871540    -0.0300127064
    6      C      -1.0924255273    -0.8948589607    -0.0499387213
    7      H       2.3212062950    -0.9919106186     0.0366253096
    8      H       1.9281628266     1.5339061338    -0.0396409425
    9      H      -2.3112811765     0.9291798391     0.0397708241
   10      H      -1.9681406707    -1.5782727141    -0.1386892729
   11      C      -0.4792774288     2.9178061824    -0.0377539728
   12      C       0.3911162075     3.9053511089     0.0625543766
   13      H      -1.5564306628     3.1336900747    -0.0910854641
   14      H       0.0588879859     4.9954458598    -0.0434763013
   15      H       1.4616649275     3.7508384534     0.1828325400
   16      C       0.5218580235    -2.9409459902     0.0008363741
   17      C      -0.4924206897    -3.8157861086     0.0956921469
   18      H       1.5716190838    -3.1636246187    -0.0803309711
   19      H      -0.2847272777    -4.8480434510     0.2872909158
   20      H      -1.5310488321    -3.5615409280     0.0208480882
 ----------------------------------------------------------------

   13    -382.2912182179      6.13E-09 Convergence criterion met
 Total energy in the final basis set = -382.29121822
 Total job time:  218.89s(wall), 218.55s(cpu)
        *  Thank you very much for using Q-Chem.  Have a nice day.  *
